<?xml version="1.0"?>
<VTKFile type="UnstructuredGrid"  version="0.1"  >
<UnstructuredGrid>
<Piece  NumberOfPoints="1306" NumberOfCells="2356">
<Points>
<DataArray  type="Float64"  NumberOfComponents="3"  format="ascii">-0.75 0 0  0.75 0 0  -1 -1 0  1 -1 0  1 1 0  -1 1 0  -0.7483941924290298 -0.04905234692143039 0  -0.7435836460305191 -0.09789464416381397 0  -0.7355889603026755 -0.146317741510826 0  -0.724444369717141 -0.1941142838256225 0  -0.7101975971217644 -0.241079598976089 0  -0.692909649384 -0.2870125742725258 0  -0.6726545561501824 -0.3317165176628999 0  -0.6495190528391268 -0.3749999999986182 0  -0.623602209227858 -0.4166776747632813 0  -0.595015005219523 -0.4565710717551114 0  -0.5638798556104562 -0.494509361323657 0  -0.5303300858913566 -0.5303300858884648 0  -0.4945093613266868 -0.5638798556077991 0  -0.4565710717583048 -0.5950150052170725 0  -0.4166776747666322 -0.623602209225619 0  -0.3750000000020135 -0.6495190528371666 0  -0.3317165176664049 -0.672654556148454 0  -0.2870125742761139 -0.6929096493825138 0  -0.2410795989798009 -0.7101975971205046 0  -0.1941142838294851 -0.724444369716106 0  -0.146317741514802 -0.7355889603018846 0  -0.09789464416785587 -0.7435836460299869 0  -0.04905234692555992 -0.7483941924287592 0  -3.00247756090001e-12 -0.75 0  0.04905234691972851 -0.7483941924291413 0  0.0978946441623841 -0.7435836460307073 0  0.1463177415096285 -0.7355889603029137 0  0.1941142838246269 -0.7244443697174078 0  0.2410795989753896 -0.7101975971220019 0  0.2870125742720389 -0.6929096493842017 0  0.3317165176626459 -0.6726545561503078 0  0.3749999999985991 -0.6495190528391378 0  0.41667767476353 -0.6236022092276918 0  0.4565710717555842 -0.5950150052191601 0  0.4945093613242373 -0.5638798556099472 0  0.5303300858892341 -0.5303300858905872 0  0.5638798556087157 -0.4945093613256417 0  0.5950150052180718 -0.4565710717570025 0  0.6236022092267106 -0.4166776747649985 0  0.6495190528382387 -0.3750000000001563 0  0.672654556149483 -0.3317165176643182 0  0.6929096493834934 -0.2870125742737488 0  0.7101975971214048 -0.2410795989771483 0  0.7244443697169077 -0.1941142838264931 0  0.7355889603025434 -0.1463177415114902 0  0.7435836460304667 -0.09789464416421147 0  0.7483941924290169 -0.04905234692162523 0  0.7483941924290298 0.04905234692143039 0  0.7435836460305191 0.09789464416381397 0  0.7355889603026755 0.146317741510826 0  0.724444369717141 0.1941142838256225 0  0.7101975971217644 0.241079598976089 0  0.692909649384 0.2870125742725258 0  0.6726545561501824 0.3317165176628999 0  0.6495190528391268 0.3749999999986182 0  0.623602209227858 0.4166776747632813 0  0.595015005219523 0.4565710717551114 0  0.5638798556104562 0.494509361323657 0  0.5303300858913566 0.5303300858884648 0  0.4945093613266868 0.5638798556077991 0  0.4565710717583048 0.5950150052170725 0  0.4166776747666322 0.623602209225619 0  0.3750000000020135 0.6495190528371666 0  0.3317165176664049 0.672654556148454 0  0.2870125742761139 0.6929096493825138 0  0.2410795989798009 0.7101975971205046 0  0.1941142838294851 0.724444369716106 0  0.146317741514802 0.7355889603018846 0  0.09789464416785587 0.7435836460299869 0  0.04905234692555992 0.7483941924287592 0  3.00247756090001e-12 0.75 0  -0.04905234691972851 0.7483941924291413 0  -0.0978946441623841 0.7435836460307073 0  -0.1463177415096285 0.7355889603029137 0  -0.1941142838246269 0.7244443697174078 0  -0.2410795989753896 0.7101975971220019 0  -0.2870125742720389 0.6929096493842017 0  -0.3317165176626459 0.6726545561503078 0  -0.3749999999985991 0.6495190528391378 0  -0.41667767476353 0.6236022092276918 0  -0.4565710717555842 0.5950150052191601 0  -0.4945093613242373 0.5638798556099472 0  -0.5303300858892341 0.5303300858905872 0  -0.5638798556087157 0.4945093613256417 0  -0.5950150052180718 0.4565710717570025 0  -0.6236022092267106 0.4166776747649985 0  -0.6495190528382387 0.3750000000001563 0  -0.672654556149483 0.3317165176643182 0  -0.6929096493834934 0.2870125742737488 0  -0.7101975971214048 0.2410795989771483 0  -0.7244443697169077 0.1941142838264931 0  -0.7355889603025434 0.1463177415114902 0  -0.7435836460304667 0.09789464416421147 0  -0.7483941924290169 0.04905234692162523 0  -1 0.9500000000001387 0  -1 0.9000000000002774 0  -1 0.8500000000004161 0  -1 0.8000000000005548 0  -1 0.7500000000006934 0  -1 0.7000000000008322 0  -1 0.6500000000009709 0  -1 0.6000000000011096 0  -1 0.5500000000012482 0  -1 0.500000000001387 0  -1 0.4500000000015257 0  -1 0.4000000000016644 0  -1 0.3500000000018031 0  -1 0.3000000000019418 0  -1 0.2500000000020806 0  -1 0.2000000000022192 0  -1 0.1500000000023578 0  -1 0.1000000000024964 0  -1 0.05000000000263527 0  -1 2.752242878045763e-12 0  -1 -0.04999999999736482 0  -1 -0.09999999999750342 0  -1 -0.149999999997642 0  -1 -0.1999999999977808 0  -1 -0.2499999999979194 0  -1 -0.2999999999980583 0  -1 -0.3499999999981969 0  -1 -0.3999999999983355 0  -1 -0.4499999999984743 0  -1 -0.4999999999986129 0  -1 -0.5499999999987515 0  -1 -0.5999999999988903 0  -1 -0.6499999999990291 0  -1 -0.699999999999168 0  -1 -0.7499999999993066 0  -1 -0.7999999999994454 0  -1 -0.849999999999584 0  -1 -0.8999999999997226 0  -1 -0.9499999999998614 0  -0.9500000000001387 -1 0  -0.9000000000002774 -1 0  -0.8500000000004161 -1 0  -0.8000000000005548 -1 0  -0.7500000000006934 -1 0  -0.7000000000008322 -1 0  -0.6500000000009709 -1 0  -0.6000000000011096 -1 0  -0.5500000000012482 -1 0  -0.500000000001387 -1 0  -0.4500000000015257 -1 0  -0.4000000000016644 -1 0  -0.3500000000018031 -1 0  -0.3000000000019418 -1 0  -0.2500000000020806 -1 0  -0.2000000000022192 -1 0  -0.1500000000023578 -1 0  -0.1000000000024964 -1 0  -0.05000000000263527 -1 0  -2.752242878045763e-12 -1 0  0.04999999999736482 -1 0  0.09999999999750342 -1 0  0.149999999997642 -1 0  0.1999999999977808 -1 0  0.2499999999979194 -1 0  0.2999999999980583 -1 0  0.3499999999981969 -1 0  0.3999999999983355 -1 0  0.4499999999984743 -1 0  0.4999999999986129 -1 0  0.5499999999987515 -1 0  0.5999999999988903 -1 0  0.6499999999990291 -1 0  0.699999999999168 -1 0  0.7499999999993066 -1 0  0.7999999999994454 -1 0  0.849999999999584 -1 0  0.8999999999997226 -1 0  0.9499999999998614 -1 0  1 -0.9500000000001387 0  1 -0.9000000000002774 0  1 -0.8500000000004161 0  1 -0.8000000000005548 0  1 -0.7500000000006934 0  1 -0.7000000000008322 0  1 -0.6500000000009709 0  1 -0.6000000000011096 0  1 -0.5500000000012482 0  1 -0.500000000001387 0  1 -0.4500000000015257 0  1 -0.4000000000016644 0  1 -0.3500000000018031 0  1 -0.3000000000019418 0  1 -0.2500000000020806 0  1 -0.2000000000022192 0  1 -0.1500000000023578 0  1 -0.1000000000024964 0  1 -0.05000000000263527 0  1 -2.752242878045763e-12 0  1 0.04999999999736482 0  1 0.09999999999750342 0  1 0.149999999997642 0  1 0.1999999999977808 0  1 0.2499999999979194 0  1 0.2999999999980583 0  1 0.3499999999981969 0  1 0.3999999999983355 0  1 0.4499999999984743 0  1 0.4999999999986129 0  1 0.5499999999987515 0  1 0.5999999999988903 0  1 0.6499999999990291 0  1 0.699999999999168 0  1 0.7499999999993066 0  1 0.7999999999994454 0  1 0.849999999999584 0  1 0.8999999999997226 0  1 0.9499999999998614 0  0.9500000000001387 1 0  0.9000000000002774 1 0  0.8500000000004161 1 0  0.8000000000005548 1 0  0.7500000000006934 1 0  0.7000000000008322 1 0  0.6500000000009709 1 0  0.6000000000011096 1 0  0.5500000000012482 1 0  0.500000000001387 1 0  0.4500000000015257 1 0  0.4000000000016644 1 0  0.3500000000018031 1 0  0.3000000000019418 1 0  0.2500000000020806 1 0  0.2000000000022192 1 0  0.1500000000023578 1 0  0.1000000000024964 1 0  0.05000000000263527 1 0  2.752242878045763e-12 1 0  -0.04999999999736482 1 0  -0.09999999999750342 1 0  -0.149999999997642 1 0  -0.1999999999977808 1 0  -0.2499999999979194 1 0  -0.2999999999980583 1 0  -0.3499999999981969 1 0  -0.3999999999983355 1 0  -0.4499999999984743 1 0  -0.4999999999986129 1 0  -0.5499999999987515 1 0  -0.5999999999988903 1 0  -0.6499999999990291 1 0  -0.699999999999168 1 0  -0.7499999999993066 1 0  -0.7999999999994454 1 0  -0.849999999999584 1 0  -0.8999999999997226 1 0  -0.9499999999998614 1 0  -0.7260115133073834 -0.7140490773999831 0  0.7260115133073831 0.714049077399983 0  -0.7259989903580564 0.7215170646134543 0  0.7259989903580564 -0.7215170646134541 0  -0.5300853173097423 -0.792282260021314 0  0.5300853173097421 0.792282260021314 0  0.794797039310626 0.5313449954119724 0  -0.7947970393106262 -0.5313449954119722 0  -0.7947970393108137 0.5313449954117953 0  0.7947970393108138 -0.5313449954117948 0  0.5300853173099099 -0.7922822600211799 0  -0.5300853173099103 0.79228226002118 0  -0.8357139439634808 -0.3708726251916453 0  0.8357139439634808 0.3708726251916455 0  -0.3708726251918615 -0.83571394396348 0  0.370872625191861 0.8357139439634801 0  -0.8357139439633258 0.3708726251916861 0  0.835713943963326 -0.3708726251916857 0  -0.3708726251916093 0.8357139439634489 0  0.3708726251916093 -0.8357139439634491 0  0.8392516870008371 0.839251687000897 0  -0.8392516870008372 -0.839251687000897 0  -0.8392516870008968 0.8392516870008369 0  0.8392516870008971 -0.8392516870008373 0  -0.6626193941577174 -0.8557964915952936 0  0.6626193941577173 0.8557964915952936 0  0.8546710446522048 0.6596143676303845 0  -0.854671044652205 -0.6596143676303846 0  -0.8557964915952931 0.662619394157717 0  0.8557964915952931 -0.6626193941577159 0  0.662697867482178 -0.8500832691531113 0  -0.6626978674821781 0.8500832691531111 0  -0.6675773651915434 -0.5944904026702718 0  0.6675773651915433 0.5944904026702719 0  0.6675773651917545 -0.5944904026700938 0  -0.6675773651917546 0.5944904026700941 0  -0.234538632926149 -0.8601900702283434 0  0.2345386329261488 0.8601900702283434 0  -0.8601900702277013 0.2345386329248857 0  0.8601900702277013 -0.2345386329248854 0  -0.8601900702274715 -0.2345386329250451 0  0.8601900702274712 0.2345386329250446 0  -0.2345386329245444 0.8601900702272047 0  0.234538632924544 -0.8601900702272047 0  -0.8702832009676685 0.08641113760258684 0  0.8702832009676686 -0.0864111376025866 0 
[...]
<PointData  Vectors="f_19"> 
<DataArray  type="Float64"  Name="f_19"  NumberOfComponents="3" format="ascii">-4.6466455409853620e-03 -1.3684959873522526e-01 0.0000000000000000e+00  1.4393211608338655e-02 -1.3597117102334136e-01 0.0000000000000000e+00  1.4049145767109462e-02 -1.4722390253620135e-01 0.0000000000000000e+00  -1.5689039109735656e-02 -1.4640489273029914e-01 0.0000000000000000e+00  1.0727928813579196e-02 -1.4315384592012842e-01 0.0000000000000000e+00  -1.2499671773137063e-02 -1.4418631127570905e-01 0.0000000000000000e+00  -1.3501790603279998e-02 -1.3644198776176567e-01 0.0000000000000000e+00  -2.2019095562548434e-02 -1.3516440052787723e-01 0.0000000000000000e+00  -2.9631315546693793e-02 -1.3332020268475872e-01 0.0000000000000000e+00  -3.5948473360116105e-02 -1.3091034307348806e-01 0.0000000000000000e+00  -4.1276506422576340e-02 -1.2766980757683066e-01 0.0000000000000000e+00  -4.5136530162500466e-02 -1.2359349757651192e-01 0.0000000000000000e+00  -4.7538695997680597e-02 -1.1902270878834591e-01 0.0000000000000000e+00  -4.8716004407173670e-02 -1.1415758385717972e-01 0.0000000000000000e+00  -4.9278923523438933e-02 -1.0824679011721677e-01 0.0000000000000000e+00  -4.8745990414199712e-02 -1.0218008381914956e-01 0.0000000000000000e+00  -4.7783792168423558e-02 -9.5306806839305730e-02 0.0000000000000000e+00  -4.6264089431306311e-02 -8.8070712877405616e-02 0.0000000000000000e+00  -4.4397197885048388e-02 -8.0114172145443793e-02 0.0000000000000000e+00  -4.2550155094380183e-02 -7.1422067932919844e-02 0.0000000000000000e+00  -4.0362297668789605e-02 -6.2062829777768794e-02 0.0000000000000000e+00  -3.7779609291022739e-02 -5.2184155025495733e-02 0.0000000000000000e+00  -3.4989870304243553e-02 -4.1590509193409092e-02 0.0000000000000000e+00  -3.1623506955623708e-02 -3.0627924355149719e-02 0.0000000000000000e+00  -2.7564093188848015e-02 -1.9951477248648198e-02 0.0000000000000000e+00  -2.2766419837526194e-02 -1.0109714011082129e-02 0.0000000000000000e+00  -1.7580126385754173e-02 -2.1100290683140443e-03 0.0000000000000000e+00  -1.2114660694358318e-02 3.6930059397132513e-03 0.0000000000000000e+00  -6.3107930843690060e-03 7.0383331409193629e-03 0.0000000000000000e+00  -1.3506392111874946e-03 8.5596066915283302e-03 0.0000000000000000e+00  3.5514892226838268e-03 8.2897122095254468e-03 0.0000000000000000e+00  8.8714881649414289e-03 6.5039235672974243e-03 0.0000000000000000e+00  1.4675204622272000e-02 2.3542793541173964e-03 0.0000000000000000e+00  2.0239335546068490e-02 -3.9218033936479447e-03 0.0000000000000000e+00  2.5754909936095808e-02 -1.2264571005342912e-02 0.0000000000000000e+00  3.0782413784426602e-02 -2.2016127818745984e-02 0.0000000000000000e+00  3.5134739105360954e-02 -3.2646275141079505e-02 0.0000000000000000e+00  3.8817080505634143e-02 -4.3232458119550413e-02 0.0000000000000000e+00  4.2171884748712328e-02 -5.3378873007023403e-02 0.0000000000000000e+00  4.5132681202070576e-02 -6.3139756203915071e-02 0.0000000000000000e+00  4.7696526125698725e-02 -7.2331216471286222e-02 0.0000000000000000e+00  5.0217801055849477e-02 -8.0819976520947870e-02 0.0000000000000000e+00  5.2375067585607719e-02 -8.8613720163163628e-02 0.0000000000000000e+00  5.3969647256591875e-02 -9.6046208492323148e-02 0.0000000000000000e+00  5.5122170669287381e-02 -1.0266186738842881e-01 0.0000000000000000e+00  5.5173445742590171e-02 -1.0912410864467442e-01 0.0000000000000000e+00  5.4603103010836339e-02 -1.1451400753721004e-01 0.0000000000000000e+00  5.2796806011685696e-02 -1.1961730828101522e-01 0.0000000000000000e+00  4.9488299615429297e-02 -1.2423007864554382e-01 0.0000000000000000e+00  4.4638132575298355e-02 -1.2801343211860075e-01 0.0000000000000000e+00  3.8732398429770720e-02 -1.3093472579267651e-01 0.0000000000000000e+00  3.1486045813919887e-02 -1.3322568322473491e-01 0.0000000000000000e+00  2.3185180085083048e-02 -1.3505734483213347e-01 0.0000000000000000e+00  5.4605056666996140e-03 -1.3620136180442363e-01 0.0000000000000000e+00  -3.3213301295003080e-03 -1.3559482727303890e-01 0.0000000000000000e+00  -1.1407614374098212e-02 -1.3445067839899530e-01 0.0000000000000000e+00  -1.8358901261466849e-02 -1.3273397711153573e-01 0.0000000000000000e+00  -2.4445260145571565e-02 -1.3024675546380338e-01 0.0000000000000000e+00  -2.9172815148072528e-02 -1.2698089998571543e-01 0.0000000000000000e+00  -3.2539506666804566e-02 -1.2326063881450625e-01 0.0000000000000000e+00  -3.4723531620242797e-02 -1.1927307212144507e-01 0.0000000000000000e+00  -3.6302674842798609e-02 -1.1432740591610049e-01 0.0000000000000000e+00  -3.6802738789240140e-02 -1.0925851425169955e-01 0.0000000000000000e+00  -3.6860799459287580e-02 -1.0345045598313801e-01 0.0000000000000000e+00  -3.6339760919149346e-02 -9.7325381213911683e-02 0.0000000000000000e+00  -3.5442840217955816e-02 -9.0532345252734708e-02 0.0000000000000000e+00  -3.4533787710435131e-02 -8.3053049383110769e-02 0.0000000000000000e+00  -3.3255830995739893e-02 -7.4934016207325968e-02 0.0000000000000000e+00  -3.1537926345510281e-02 -6.6309597511873222e-02 0.0000000000000000e+00  -2.9596586964062321e-02 -5.6954013792763762e-02 0.0000000000000000e+00  -2.7075428700052390e-02 -4.7198164460220522e-02 0.0000000000000000e+00  -2.3861191289409736e-02 -3.7598873317243701e-02 0.0000000000000000e+00  -1.9884032231625711e-02 -2.8665333735095482e-02 0.0000000000000000e+00  -1.5459780785541501e-02 -2.1367347164012208e-02 0.0000000000000000e+00  -1.0708208743975954e-02 -1.6025645481766472e-02 0.0000000000000000e+00  -5.6027791207032612e-03 -1.2917822943232701e-02 0.0000000000000000e+00  -1.2180588948874742e-03 -1.1506880069596524e-02 0.0000000000000000e+00  3.1244850389951866e-03 -1.1759066590102138e-02 0.0000000000000000e+00  7.8222583896708602e-03 -1.3424848700843027e-02 0.0000000000000000e+00  1.2926652866151946e-02 -1.7272903434052508e-02 0.0000000000000000e+00  1.7755203603929584e-02 -2.3040670290814323e-02 0.0000000000000000e+00  2.2456196140495245e-02 -3.0674107769130342e-02 0.0000000000000000e+00  2.6622716668660139e-02 -3.9522155467391878e-02 0.0000000000000000e+00  3.0107974439774032e-02 -4.9083437001175463e-02 0.0000000000000000e+00  3.2923660156686393e-02 -5.8544393817417266e-02 0.0000000000000000e+00  3.5404169039542716e-02 -6.7525146198423244e-02 0.0000000000000000e+00  3.7445315842080482e-02 -7.6120717780871067e-02 0.0000000000000000e+00  3.9065223562812473e-02 -8.4162177495378909e-02 0.0000000000000000e+00  4.0617044996149237e-02 -9.1541936933055665e-02 0.0000000000000000e+00  4.1776767933400516e-02 -9.8271395284587379e-02 0.0000000000000000e+00  4.2350580494722623e-02 -1.0468194785090355e-01 0.0000000000000000e+00  4.2468752449449684e-02 -1.1033719663575460e-01 0.0000000000000000e+00  4.1496019424549231e-02 -1.1587035897709719e-01 0.0000000000000000e+00  3.9907708124390255e-02 -1.2041184560267183e-01 0.0000000000000000e+00  3.7117823322620661e-02 -1.2469169683529766e-01 0.0000000000000000e+00  3.2913122778423919e-02 -1.2851743605756755e-01 0.0000000000000000e+00  2.7268139386885239e-02 -1.3156424191422195e-01 0.0000000000000000e+00  2.0677353535588319e-02 -1.3380639655957516e-01 0.0000000000000000e+00  1.2917346836847286e-02 -1.3543848826037355e-01 0.0000000000000000e+00  4.2896965167006406e-03 -1.3656638318502826e-01 0.0000000000000000e+00  -6.2865348308655577e-03 -1.4385151501394206e-01 0.0000000000000000e+00  -1.8778457187710156e-04 -1.4338420733486101e-01 0.0000000000000000e+00  5.8429913713908040e-03 -1.4267921976979112e-01 0.0000000000000000e+00  1.1799669738288337e-02 -1.4164810495161531e-01 0.0000000000000000e+00  1.7511097324204975e-02 -1.4036635645272100e-01 0.0000000000000000e+00  2.2851590096316640e-02 -1.3872330305727062e-01 0.0000000000000000e+00  2.7762840583535373e-02 -1.3659472341429740e-01 0.0000000000000000e+00  3.1970767376341983e-02 -1.3433511633863970e-01 0.0000000000000000e+00  3.5469909451098833e-02 -1.3167881651379604e-01 0.0000000000000000e+00  3.8067015403013188e-02 -1.2855855126257446e-01 0.0000000000000000e+00  3.9584220754333252e-02 -1.2531911325693088e-01 0.0000000000000000e+00  3.9812326738930967e-02 -1.2199090555486189e-01 0.0000000000000000e+00  3.8831157306288930e-02 -1.1836313974796710e-01 0.0000000000000000e+00  3.6288617962707485e-02 -1.1483827731231848e-01 0.0000000000000000e+00  3.2409386720941707e-02 -1.1162470813253633e-01 0.0000000000000000e+00  2.7172729456001962e-02 -1.0852301502519893e-01 0.0000000000000000e+00  2.0340594789278979e-02 -1.0605697805254577e-01 0.0000000000000000e+00  1.2813087338790606e-02 -1.0416671394235512e-01 0.0000000000000000e+00  4.2563369343193462e-03 -1.0291071288462893e-01 0.0000000000000000e+00  -4.5557931788385740e-03 -1.0263328079562872e-01 0.0000000000000000e+00  -1.3313385359280287e-02 -1.0315791197369406e-01 0.0000000000000000e+00  -2.1778165349872237e-02 -1.0468814234194417e-01 0.0000000000000000e+00  -2.9083795553028167e-02 -1.0683716142126019e-01 0.0000000000000000e+00  -3.5660457306727331e-02 -1.0955361760033704e-01 0.0000000000000000e+00  -4.0553038863455397e-02 -1.1290318611078294e-01 0.0000000000000000e+00  -4.4032519997778907e-02 -1.1634286127188312e-01 0.0000000000000000e+00  -4.6117653463194477e-02 -1.2008720924237704e-01 0.0000000000000000e+00  -4.6587068770853751e-02 -1.2392808102921006e-01 0.0000000000000000e+00  -4.5802787363388650e-02 -1.2744738945882295e-01 0.0000000000000000e+00  -4.3684251261918036e-02 -1.3086744593141922e-01 0.0000000000000000e+00  -4.0446662814596100e-02 -1.3415773228763933e-01 0.0000000000000000e+00  -3.6273539784902116e-02 -1.3696206728466848e-01 0.0000000000000000e+00  -3.1358935647939325e-02 -1.3935156400615228e-01 0.0000000000000000e+00  -2.5698225697208320e-02 -1.4159238923630396e-01 0.0000000000000000e+00  -1.9620019890554931e-02 -1.4330448085883143e-01 0.0000000000000000e+00  -1.3159134503285114e-02 -1.4464533978148272e-01 0.0000000000000000e+00  -6.4504783697618149e-03 -1.4570382219928396e-01 0.0000000000000000e+00  3.0437895660403037e-04 -1.4641934201551765e-01 0.0000000000000000e+00  7.1230183884854236e-03 -1.4689008695021138e-01 0.0000000000000000e+00  1.3871886405418848e-02 -1.4007190352107834e-01 0.0000000000000000e+00  1.3637831703241879e-02 -1.3339178500041990e-01 0.0000000000000000e+00  1.3608882979416689e-02 -1.2699306668095889e-01 0.0000000000000000e+00  1.3851698504136863e-02 -1.2073066310249247e-01 0.0000000000000000e+00  1.4368418415065105e-02 -1.1435801160974353e-01 0.0000000000000000e+00  1.5188473649878990e-02 -1.0772709568306539e-01 0.0000000000000000e+00  1.6351144561381800e-02 -1.0067362853172609e-01 0.0000000000000000e+00  1.7520240357814423e-02 -9.2991961791972166e-02 0.0000000000000000e+00  1.8773904806976525e-02 -8.4611806978024715e-02 0.0000000000000000e+00  2.0012241138138782e-02 -7.5452524297478077e-02 0.0000000000000000e+00  2.0856950017132097e-02 -6.5480561958617040e-02 0.0000000000000000e+00  2.1165187992666555e-02 -5.4656984734551037e-02 0.0000000000000000e+00  2.0646333450330540e-02 -4.3340277656737064e-02 0.0000000000000000e+00  1.9260917929099963e-02 -3.1133754119703247e-02 0.0000000000000000e+00  1.6264215975609942e-02 -1.8634368154485555e-02 0.0000000000000000e+00  9.7334452679649769e-03 -4.8024695548764982e-03 0.0000000000000000e+00  0.0000000000000000e+00 1.0000000000000000e-02 0.0000000000000000e+00  0.0000000000000000e+00 1.0000000000000000e-02 0.0000000000000000e+00  0.0000000000000000e+00 9.9999999999999985e-03 0.0000000000000000e+00  0.0000000000000000e+00 9.9999999999999985e-03 0.0000000000000000e+00  0.0000000000000000e+00 9.9999999999999985e-03 0.0000000000000000e+00  0.0000000000000000e+00 1.0000000000000000e-02 0.0000000000000000e+00  0.0000000000000000e+00 1.0000000000000000e-02 0.0000000000000000e+00  0.0000000000000000e+00 1.0000000000000000e-02 0.0000000000000000e+00  -1.1516123454290761e-02 -7.8796266288748799e-03 0.0000000000000000e+00  -1.6342643682831195e-02 -2.0926949300202561e-02 0.0000000000000000e+00  -1.8913573484783099e-02 -3.3599757991008977e-02 0.0000000000000000e+00  -2.0361255114835938e-02 -4.5341452703659628e-02 0.0000000000000000e+00  -2.0708526625010999e-02 -5.6700273911562724e-02 0.0000000000000000e+00  -2.0389819040637174e-02 -6.7291004160557499e-02 0.0000000000000000e+00  -1.9560699437352048e-02 -7.7146604593094859e-02 0.0000000000000000e+00  -1.8601997412774886e-02 -8.6266873191532589e-02 0.0000000000000000e+00  -1.7642247373780413e-02 -9.4695388900870259e-02 0.0000000000000000e+00  -1.6637481554808785e-02 -1.0252310101780086e-01 0.0000000000000000e+00  -1.5915862309201660e-02 -1.0991826770037716e-01 0.0000000000000000e+00  -1.5454066805770250e-02 -1.1704394632865123e-01 0.0000000000000000e+00  -1.5244448409663408e-02 -1.2405105945239596e-01 0.0000000000000000e+00  -1.5286813238023955e-02 -1.3118196683712741e-01 0.0000000000000000e+00  -1.5513601023845172e-02 -1.3856832934339050e-01 0.0000000000000000e+00  -8.0779951233623994e-03 -1.4606959862468130e-01 0.0000000000000000e+00  -5.8090997457365431e-04 -1.4560056895961965e-01 0.0000000000000000e+00  6.8470303658964421e-03 -1.4489212213940314e-01 0.0000000000000000e+00  1.4198862785098968e-02 -1.4385445086267043e-01 0.0000000000000000e+00  2.1303409866089064e-02 -1.4256414918883040e-01 0.0000000000000000e+00  2.8031465550411111e-02 -1.4090703044831407e-01 0.0000000000000000e+00  3.4326749196006028e-02 -1.3875288779215927e-01 0.0000000000000000e+00  3.9907772240330229e-02 -1.3646029873343030e-01 0.0000000000000000e+00  4.4768092510741944e-02 -1.3375173503828852e-01 0.0000000000000000e+00  4.8706550209299045e-02 -1.3055005370707012e-01 0.0000000000000000e+00  5.1530626555154328e-02 -1.2720398495219210e-01 0.0000000000000000e+00  5.3015619545427238e-02 -1.2374161300715586e-01 0.0000000000000000e+00  5.3228017434187640e-02 -1.1992563962447356e-01 0.0000000000000000e+00  5.1795542317076372e-02 -1.1618418947010885e-01 0.0000000000000000e+00  4.8922035362943588e-02 -1.1272095258180073e-01 0.0000000000000000e+00  4.4568764407880601e-02 -1.0929885339767281e-01 0.0000000000000000e+00  3.8416081775328917e-02 -1.0649308205407509e-01 0.0000000000000000e+00  3.1477689120326224e-02 -1.0423908303876581e-01 0.0000000000000000e+00  2.3253211049622618e-02 -1.0255871231444048e-01 0.0000000000000000e+00  1.4575147607020146e-02 -1.0186230961173470e-01 0.0000000000000000e+00  5.7386595989288788e-03 -1.0197898959253143e-01 0.0000000000000000e+00  -2.9980917525572839e-03 -1.0307540202851294e-01 0.0000000000000000e+00  -1.0842436662641952e-02 -1.0484631741959660e-01 0.0000000000000000e+00  -1.8052082509473523e-02 -1.0720417981929116e-01 0.0000000000000000e+00  -2.3792753931204450e-02 -1.1020925054587674e-01 0.0000000000000000e+00  -2.8252351925092022e-02 -1.1337372474499244e-01 0.0000000000000000e+00  -3.1431939471619062e-02 -1.1687356420438828e-01 0.0000000000000000e+00  -3.3090644360933640e-02 -1.2049730165633661e-01 0.0000000000000000e+00  -3.3567786579959000e-02 -1.2385521410309361e-01 0.0000000000000000e+00  -3.2770372551145621e-02 -1.2714171282444800e-01 0.0000000000000000e+00  -3.0896803299781169e-02 -1.3032425553757593e-01 0.0000000000000000e+00  -2.8114864690794921e-02 -1.3305346570272994e-01 0.0000000000000000e+00  -2.4609555264947926e-02 -1.3539022951183591e-01 0.0000000000000000e+00  -2.0375549307638800e-02 -1.3758771006262199e-01 0.0000000000000000e+00  -1.5729678011312687e-02 -1.3927315651079769e-01 0.0000000000000000e+00  -1.0708899674849870e-02 -1.4059624044196298e-01 0.0000000000000000e+00  -5.4436363112262938e-03 -1.4164248290453599e-01 0.0000000000000000e+00  -1.3264392827200497e-04 -1.4235194468735965e-01 0.0000000000000000e+00  5.2426366160160248e-03 -1.4282066273654900e-01 0.0000000000000000e+00  1.0550032697356364e-02 -1.3744186196981525e-01 0.0000000000000000e+00  1.0313845823491598e-02 -1.3219941058787285e-01 0.0000000000000000e+00  1.0278841659530927e-02 -1.2723895538775512e-01 0.0000000000000000e+00  1.0510990449222959e-02 -1.2241949282189184e-01 0.0000000000000000e+00  1.1016503348983107e-02 -1.1749972425764987e-01 0.0000000000000000e+00  1.1827785929256653e-02 -1.1233233061695838e-01 0.0000000000000000e+00  1.2988726264066202e-02 -1.0675966378497727e-01 0.0000000000000000e+00  1.4172393260405182e-02 -1.0056992185069383e-01 0.0000000000000000e+00  1.5465352422486473e-02 -9.3698076087268475e-02 0.0000000000000000e+00  1.6781896282470600e-02 -8.6053813832548481e-02 0.0000000000000000e+00  1.7754661004012261e-02 -7.7588340446644713e-02 0.0000000000000000e+00  1.8247489917822889e-02 -6.8248856433347216e-02 0.0000000000000000e+00  1.8013042041639522e-02 -5.8364960736089412e-02 0.0000000000000000e+00  1.6984953483274702e-02 -4.7539668908100290e-02 0.0000000000000000e+00  1.4464363717086036e-02 -3.6327491117281847e-02 0.0000000000000000e+00  8.7139389613191676e-03 -2.3749645269139811e-02 0.0000000000000000e+00  0.0000000000000000e+00 -1.0000000000000000e-02 0.0000000000000000e+00  0.0000000000000000e+00 -1.0000000000000000e-02 0.0000000000000000e+00  0.0000000000000000e+00 -9.9999999999999985e-03 0.0000000000000000e+00  0.0000000000000000e+00 -9.9999999999999985e-03 0.0000000000000000e+00  0.0000000000000000e+00 -9.9999999999999985e-03 0.0000000000000000e+00  0.0000000000000000e+00 -1.0000000000000000e-02 0.0000000000000000e+00  0.0000000000000000e+00 -1.0000000000000000e-02 0.0000000000000000e+00  0.0000000000000000e+00 -1.0000000000000000e-02 0.0000000000000000e+00  -1.0361042005675863e-02 -2.6551817926803858e-02 0.0000000000000000e+00  -1.4580480312752926e-02 -3.8407527687452502e-02 0.0000000000000000e+00  -1.6709779741486797e-02 -4.9792724465409423e-02 0.0000000000000000e+00  -1.7808042918659034e-02 -6.0191768118517119e-02 0.0000000000000000e+00  -1.7922580915955375e-02 -7.0147252812288452e-02 0.0000000000000000e+00  -1.7433645681250606e-02 -7.9302569892922406e-02 0.0000000000000000e+00  -1.6489515273965499e-02 -8.7704486735598178e-02 0.0000000000000000e+00  -1.5461971222677872e-02 -9.5370198204778961e-02 0.0000000000000000e+00  -1.4463901817826677e-02 -1.0235484360910579e-01 0.0000000000000000e+00  -1.3440336894792333e-02 -1.0874252228328968e-01 0.0000000000000000e+00  -1.2714140797191728e-02 -1.1471380140200189e-01 0.0000000000000000e+00  -1.2254108728060299e-02 -1.2042492543391874e-01 0.0000000000000000e+00  -1.2049229154152246e-02 -1.2602633512013267e-01 0.0000000000000000e+00  -1.2095041390525226e-02 -1.3175763051149442e-01 0.0000000000000000e+00  -1.2323728878728164e-02 -1.3774694019552705e-01 0.0000000000000000e+00  -2.5693095941787820e-02 -1.1199366722543894e-01 0.0000000000000000e+00  -2.0842264580021762e-02 -1.1569891796753821e-01 0.0000000000000000e+00  2.2038297842508266e-02 -1.1262157648585017e-01 0.0000000000000000e+00  2.6532607613769753e-02 -1.0726493855135981e-01 0.0000000000000000e+00  -1.4688878749895195e-02 -8.2322462739620447e-02 0.0000000000000000e+00  -1.2204929795577423e-02 -9.1968994457155562e-02 0.0000000000000000e+00  -3.4239947472351644e-02 -1.2116475120934506e-01 0.0000000000000000e+00  -4.4301339642724799e-02 -1.1960623613975513e-01 0.0000000000000000e+00  3.8901930048591951e-02 -1.1963884777189331e-01 0.0000000000000000e+00  4.8677174220894848e-02 -1.1640934086920716e-01 0.0000000000000000e+00  1.5523432398248296e-02 -7.4439538669648225e-02 0.0000000000000000e+00  1.3111502073937346e-02 -8.5555749778785967e-02 0.0000000000000000e+00  -4.9130765176943009e-02 -1.2177762148248727e-01 0.0000000000000000e+00  -3.4852712061311297e-02 -1.2209651929485027e-01 0.0000000000000000e+00  -8.0109148808908855e-03 -4.8181091872292484e-02 0.0000000000000000e+00  -6.7795415420832637e-03 -6.2709212493496563e-02 0.0000000000000000e+00  4.1882831486386940e-02 -1.2153679308533401e-01 0.0000000000000000e+00  5.5847766560752653e-02 -1.1954398986061429e-01 0.0000000000000000e+00  7.3095068565526538e-03 -5.4166365751829794e-02 0.0000000000000000e+00  8.5304574788967330e-03 -3.8422931469746208e-02 0.0000000000000000e+00  -7.2259491041679639e-03 -1.2562972771077027e-01 0.0000000000000000e+00  -8.5407518642703194e-03 -1.2508783340951002e-01 0.0000000000000000e+00  7.7523362832326616e-03 -1.24281197992