<?xml version="1.0"?>
<VTKFile type="UnstructuredGrid"  version="0.1"  >
<UnstructuredGrid>
<Piece  NumberOfPoints="1306" NumberOfCells="2356">
<Points>
<DataArray  type="Float64"  NumberOfComponents="3"  format="ascii">-0.75 0 0  0.75 0 0  -1 -1 0  1 -1 0  1 1 0  -1 1 0  -0.7483941924290298 -0.04905234692143039 0  -0.7435836460305191 -0.09789464416381397 0  -0.7355889603026755 -0.146317741510826 0  -0.724444369717141 -0.1941142838256225 0  -0.7101975971217644 -0.241079598976089 0  -0.692909649384 -0.2870125742725258 0  -0.6726545561501824 -0.3317165176628999 0  -0.6495190528391268 -0.3749999999986182 0  -0.623602209227858 -0.4166776747632813 0  -0.595015005219523 -0.4565710717551114 0  -0.5638798556104562 -0.494509361323657 0  -0.5303300858913566 -0.5303300858884648 0  -0.4945093613266868 -0.5638798556077991 0  -0.4565710717583048 -0.5950150052170725 0  -0.4166776747666322 -0.623602209225619 0  -0.3750000000020135 -0.6495190528371666 0  -0.3317165176664049 -0.672654556148454 0  -0.2870125742761139 -0.6929096493825138 0  -0.2410795989798009 -0.7101975971205046 0  -0.1941142838294851 -0.724444369716106 0  -0.146317741514802 -0.7355889603018846 0  -0.09789464416785587 -0.7435836460299869 0  -0.04905234692555992 -0.7483941924287592 0  -3.00247756090001e-12 -0.75 0  0.04905234691972851 -0.7483941924291413 0  0.0978946441623841 -0.7435836460307073 0  0.1463177415096285 -0.7355889603029137 0  0.1941142838246269 -0.7244443697174078 0  0.2410795989753896 -0.7101975971220019 0  0.2870125742720389 -0.6929096493842017 0  0.3317165176626459 -0.6726545561503078 0  0.3749999999985991 -0.6495190528391378 0  0.41667767476353 -0.6236022092276918 0  0.4565710717555842 -0.5950150052191601 0  0.4945093613242373 -0.5638798556099472 0  0.5303300858892341 -0.5303300858905872 0  0.5638798556087157 -0.4945093613256417 0  0.5950150052180718 -0.4565710717570025 0  0.6236022092267106 -0.4166776747649985 0  0.6495190528382387 -0.3750000000001563 0  0.672654556149483 -0.3317165176643182 0  0.6929096493834934 -0.2870125742737488 0  0.7101975971214048 -0.2410795989771483 0  0.7244443697169077 -0.1941142838264931 0  0.7355889603025434 -0.1463177415114902 0  0.7435836460304667 -0.09789464416421147 0  0.7483941924290169 -0.04905234692162523 0  0.7483941924290298 0.04905234692143039 0  0.7435836460305191 0.09789464416381397 0  0.7355889603026755 0.146317741510826 0  0.724444369717141 0.1941142838256225 0  0.7101975971217644 0.241079598976089 0  0.692909649384 0.2870125742725258 0  0.6726545561501824 0.3317165176628999 0  0.6495190528391268 0.3749999999986182 0  0.623602209227858 0.4166776747632813 0  0.595015005219523 0.4565710717551114 0  0.5638798556104562 0.494509361323657 0  0.5303300858913566 0.5303300858884648 0  0.4945093613266868 0.5638798556077991 0  0.4565710717583048 0.5950150052170725 0  0.4166776747666322 0.623602209225619 0  0.3750000000020135 0.6495190528371666 0  0.3317165176664049 0.672654556148454 0  0.2870125742761139 0.6929096493825138 0  0.2410795989798009 0.7101975971205046 0  0.1941142838294851 0.724444369716106 0  0.146317741514802 0.7355889603018846 0  0.09789464416785587 0.7435836460299869 0  0.04905234692555992 0.7483941924287592 0  3.00247756090001e-12 0.75 0  -0.04905234691972851 0.7483941924291413 0  -0.0978946441623841 0.7435836460307073 0  -0.1463177415096285 0.7355889603029137 0  -0.1941142838246269 0.7244443697174078 0  -0.2410795989753896 0.7101975971220019 0  -0.2870125742720389 0.6929096493842017 0  -0.3317165176626459 0.6726545561503078 0  -0.3749999999985991 0.6495190528391378 0  -0.41667767476353 0.6236022092276918 0  -0.4565710717555842 0.5950150052191601 0  -0.4945093613242373 0.5638798556099472 0  -0.5303300858892341 0.5303300858905872 0  -0.5638798556087157 0.4945093613256417 0  -0.5950150052180718 0.4565710717570025 0  -0.6236022092267106 0.4166776747649985 0  -0.6495190528382387 0.3750000000001563 0  -0.672654556149483 0.3317165176643182 0  -0.6929096493834934 0.2870125742737488 0  -0.7101975971214048 0.2410795989771483 0  -0.7244443697169077 0.1941142838264931 0  -0.7355889603025434 0.1463177415114902 0  -0.7435836460304667 0.09789464416421147 0  -0.7483941924290169 0.04905234692162523 0  -1 0.9500000000001387 0  -1 0.9000000000002774 0  -1 0.8500000000004161 0  -1 0.8000000000005548 0  -1 0.7500000000006934 0  -1 0.7000000000008322 0  -1 0.6500000000009709 0  -1 0.6000000000011096 0  -1 0.5500000000012482 0  -1 0.500000000001387 0  -1 0.4500000000015257 0  -1 0.4000000000016644 0  -1 0.3500000000018031 0  -1 0.3000000000019418 0  -1 0.2500000000020806 0  -1 0.2000000000022192 0  -1 0.1500000000023578 0  -1 0.1000000000024964 0  -1 0.05000000000263527 0  -1 2.752242878045763e-12 0  -1 -0.04999999999736482 0  -1 -0.09999999999750342 0  -1 -0.149999999997642 0  -1 -0.1999999999977808 0  -1 -0.2499999999979194 0  -1 -0.2999999999980583 0  -1 -0.3499999999981969 0  -1 -0.3999999999983355 0  -1 -0.4499999999984743 0  -1 -0.4999999999986129 0  -1 -0.5499999999987515 0  -1 -0.5999999999988903 0  -1 -0.6499999999990291 0  -1 -0.699999999999168 0  -1 -0.7499999999993066 0  -1 -0.7999999999994454 0  -1 -0.849999999999584 0  -1 -0.8999999999997226 0  -1 -0.9499999999998614 0  -0.9500000000001387 -1 0  -0.9000000000002774 -1 0  -0.8500000000004161 -1 0  -0.8000000000005548 -1 0  -0.7500000000006934 -1 0  -0.7000000000008322 -1 0  -0.6500000000009709 -1 0  -0.6000000000011096 -1 0  -0.5500000000012482 -1 0  -0.500000000001387 -1 0  -0.4500000000015257 -1 0  -0.4000000000016644 -1 0  -0.3500000000018031 -1 0  -0.3000000000019418 -1 0  -0.2500000000020806 -1 0  -0.2000000000022192 -1 0  -0.1500000000023578 -1 0  -0.1000000000024964 -1 0  -0.05000000000263527 -1 0  -2.752242878045763e-12 -1 0  0.04999999999736482 -1 0  0.09999999999750342 -1 0  0.149999999997642 -1 0  0.1999999999977808 -1 0  0.2499999999979194 -1 0  0.2999999999980583 -1 0  0.3499999999981969 -1 0  0.3999999999983355 -1 0  0.4499999999984743 -1 0  0.4999999999986129 -1 0  0.5499999999987515 -1 0  0.5999999999988903 -1 0  0.6499999999990291 -1 0  0.699999999999168 -1 0  0.7499999999993066 -1 0  0.7999999999994454 -1 0  0.849999999999584 -1 0  0.8999999999997226 -1 0  0.9499999999998614 -1 0  1 -0.9500000000001387 0  1 -0.9000000000002774 0  1 -0.8500000000004161 0  1 -0.8000000000005548 0  1 -0.7500000000006934 0  1 -0.7000000000008322 0  1 -0.6500000000009709 0  1 -0.6000000000011096 0  1 -0.5500000000012482 0  1 -0.500000000001387 0  1 -0.4500000000015257 0  1 -0.4000000000016644 0  1 -0.3500000000018031 0  1 -0.3000000000019418 0  1 -0.2500000000020806 0  1 -0.2000000000022192 0  1 -0.1500000000023578 0  1 -0.1000000000024964 0  1 -0.05000000000263527 0  1 -2.752242878045763e-12 0  1 0.04999999999736482 0  1 0.09999999999750342 0  1 0.149999999997642 0  1 0.1999999999977808 0  1 0.2499999999979194 0  1 0.2999999999980583 0  1 0.3499999999981969 0  1 0.3999999999983355 0  1 0.4499999999984743 0  1 0.4999999999986129 0  1 0.5499999999987515 0  1 0.5999999999988903 0  1 0.6499999999990291 0  1 0.699999999999168 0  1 0.7499999999993066 0  1 0.7999999999994454 0  1 0.849999999999584 0  1 0.8999999999997226 0  1 0.9499999999998614 0  0.9500000000001387 1 0  0.9000000000002774 1 0  0.8500000000004161 1 0  0.8000000000005548 1 0  0.7500000000006934 1 0  0.7000000000008322 1 0  0.6500000000009709 1 0  0.6000000000011096 1 0  0.5500000000012482 1 0  0.500000000001387 1 0  0.4500000000015257 1 0  0.4000000000016644 1 0  0.3500000000018031 1 0  0.3000000000019418 1 0  0.2500000000020806 1 0  0.2000000000022192 1 0  0.1500000000023578 1 0  0.1000000000024964 1 0  0.05000000000263527 1 0  2.752242878045763e-12 1 0  -0.04999999999736482 1 0  -0.09999999999750342 1 0  -0.149999999997642 1 0  -0.1999999999977808 1 0  -0.2499999999979194 1 0  -0.2999999999980583 1 0  -0.3499999999981969 1 0  -0.3999999999983355 1 0  -0.4499999999984743 1 0  -0.4999999999986129 1 0  -0.5499999999987515 1 0  -0.5999999999988903 1 0  -0.6499999999990291 1 0  -0.699999999999168 1 0  -0.7499999999993066 1 0  -0.7999999999994454 1 0  -0.849999999999584 1 0  -0.8999999999997226 1 0  -0.9499999999998614 1 0  -0.7260115133073834 -0.7140490773999831 0  0.7260115133073831 0.714049077399983 0  -0.7259989903580564 0.7215170646134543 0  0.7259989903580564 -0.7215170646134541 0  -0.5300853173097423 -0.792282260021314 0  0.5300853173097421 0.792282260021314 0  0.794797039310626 0.5313449954119724 0  -0.7947970393106262 -0.5313449954119722 0  -0.7947970393108137 0.5313449954117953 0  0.7947970393108138 -0.5313449954117948 0  0.5300853173099099 -0.7922822600211799 0  -0.5300853173099103 0.79228226002118 0  -0.8357139439634808 -0.3708726251916453 0  0.8357139439634808 0.3708726251916455 0  -0.3708726251918615 -0.83571394396348 0  0.370872625191861 0.8357139439634801 0  -0.8357139439633258 0.3708726251916861 0  0.835713943963326 -0.3708726251916857 0  -0.3708726251916093 0.8357139439634489 0  0.3708726251916093 -0.8357139439634491 0  0.8392516870008371 0.839251687000897 0  -0.8392516870008372 -0.839251687000897 0  -0.8392516870008968 0.8392516870008369 0  0.8392516870008971 -0.8392516870008373 0  -0.6626193941577174 -0.8557964915952936 0  0.6626193941577173 0.8557964915952936 0  0.8546710446522048 0.6596143676303845 0  -0.854671044652205 -0.6596143676303846 0  -0.8557964915952931 0.662619394157717 0  0.8557964915952931 -0.6626193941577159 0  0.662697867482178 -0.8500832691531113 0  -0.6626978674821781 0.8500832691531111 0  -0.6675773651915434 -0.5944904026702718 0  0.6675773651915433 0.5944904026702719 0  0.6675773651917545 -0.5944904026700938 0  -0.6675773651917546 0.5944904026700941 0  -0.234538632926149 -0.8601900702283434 0  0.2345386329261488 0.8601900702283434 0  -0.8601900702277013 0.2345386329248857 0  0.8601900702277013 -0.2345386329248854 0  -0.8601900702274715 -0.2345386329250451 0  0.8601900702274712 0.2345386329250446 0  -0.2345386329245444 0.8601900702272047 0  0.234538632924544 -0.8601900702272047 0  -0.8702832009676685 0.08641113760258684 0  0.8702832009676686 -0.0864111376025866 0 
[...]
<PointData  Scalars="f_53"> 
<DataArray  type="Float64"  Name="f_53"  format="ascii">1.9863547992926046e-02  2.8616191463413144e-02  1.9517060128845975e-02  1.9484025276103881e-02  1.9524369193977570e-02  1.9488795967496947e-02  6.7725508851796179e-02  1.3073626249207271e-01  1.7339848878674557e-01  2.2249805295361613e-01  2.4292017158586968e-01  2.5822881483028864e-01  2.4838036089267407e-01  2.7048778139230589e-01  2.5580476857957662e-01  2.3679442017098895e-01  2.2437576413086133e-01  2.0301975644227430e-01  2.1343972431687971e-01  1.9961033416237622e-01  1.7169865803042231e-01  1.3915356634651316e-01  1.1345587169059217e-01  7.8060486356674397e-02  8.8558879545249394e-02  1.5203429196221299e-01  1.9267977527823293e-01  2.8040403973137012e-01  2.9117326215987016e-01  2.4223748905784140e-01  2.6229541662146144e-01  2.5388932789294899e-01  2.4160327290508307e-01  1.9263718400910970e-01  1.3098718922034897e-01  7.3096572622069492e-02  7.5592728753927738e-02  1.0838132184108237e-01  1.4963110919408618e-01  1.8450467388356021e-01  2.0432802146914100e-01  1.9982805740188259e-01  2.2492000712524973e-01  2.3976886076292384e-01  2.6193594010122112e-01  2.7880239479763630e-01  2.5897243739874398e-01  2.7147639696735965e-01  2.6084060462283110e-01  2.4322137453286874e-01  1.8393297451096643e-01  1.6474432311824508e-01  1.0528494098587643e-01  3.9150556638648588e-02  1.0103411075906396e-01  1.4364297626539468e-01  1.9513514243926675e-01  2.1881341168515359e-01  2.3795995039837467e-01  2.3137152635509270e-01  2.5512862426042915e-01  2.4296710264138391e-01  2.2706434856876101e-01  2.1651569349047139e-01  1.9767084234035492e-01  2.1001694530597576e-01  1.9855670289650823e-01  1.7367370607318727e-01  1.4491155629348346e-01  1.2332806742083273e-01  8.3229023157021936e-02  7.4627670902105828e-02  1.2438441687620190e-01  1.6243211592752527e-01  2.4480770899654142e-01  2.5767769010431790e-01  2.1484029937656757e-01  2.3265166856334540e-01  2.2348677449806614e-01  2.0901224150925518e-01  1.6211695746263785e-01  1.0636568271979172e-01  6.8301002951003692e-02  8.5085676077368527e-02  1.1662286761746143e-01  1.5411328323793219e-01  1.8578937242953658e-01  2.0302167414783617e-01  1.9619944798121203e-01  2.1872924133514046e-01  2.3168750648954806e-01  2.5079674031283566e-01  2.6519916239240388e-01  2.4355385522781320e-01  2.5281969602622784e-01  2.3812896457756738e-01  2.1732401699271586e-01  1.5683242723092392e-01  1.3160501082434697e-01  6.8982352130207564e-02  2.3038390152598263e-02  2.8042598176889175e-02  4.5794099166625434e-02  5.7082763450101923e-02  7.0639036415400605e-02  9.9719003856542809e-02  1.1343945212030419e-01  1.2282517109093091e-01  1.5307314844052913e-01  1.6662623390460038e-01  1.5856182944257499e-01  1.8430696365731744e-01  1.7793131660238018e-01  1.7136771355737301e-01  1.7145565803904131e-01  1.3106151191314938e-01  1.3254835052036851e-01  8.7190869434468868e-02  5.5592245681984738e-02  3.5637891480630214e-02  6.4937328245116069e-02  9.7800239185784343e-02  1.4632937112436498e-01  1.4258725657250826e-01  1.8362109670053436e-01  1.8256986834733541e-01  1.8865957840878886e-01  1.9473045321989260e-01  1.6757934867217111e-01  1.7559898447975086e-01  1.6137774857384887e-01  1.2980816225002301e-01  1.1981576118516257e-01  1.0421089171745049e-01  7.3047316351950248e-02  5.9620047231313290e-02  4.6719656658770134e-02  2.8279535114640424e-02  2.2949881175975160e-02  1.7159335446579268e-02  1.3068682068421949e-02  1.0898269655957856e-02  1.9390911592369442e-02  2.8850938579363699e-02  4.9397566921361748e-02  6.1161911136416690e-02  5.5292575163078499e-02  6.5131291291058574e-02  5.4994364504149601e-02  3.2089199017211384e-02  2.9169022378164752e-02  6.7977800664844379e-02  9.6601804305062808e-02  2.4975784312656685e-01  4.9792140036482324e-01  6.0500119681521347e-01  2.4954425150183524e-02  5.2713769053088250e-02  6.8073958199715576e-03  5.6754182650059692e-03  1.0703559350595852e-01  6.8600236165064887e-02  4.6578568774964535e-01  4.6758089720259494e-01  1.5406002703393781e-01  1.1951419826294421e-01  5.6656457856677146e-02  3.1433513555790486e-02  2.9307058312797268e-02  4.7660912064709043e-02  4.2914855960444462e-02  5.1924761132037860e-02  4.2837329027622877e-02  2.5480251844990903e-02  1.7353441493921543e-02  1.0336894828631978e-02  1.3431880641339712e-02  1.6999706953684374e-02  2.3061302619622342e-02  2.8129411374691493e-02  4.6014500070980055e-02  5.7450336050221706e-02  7.1078339281750086e-02  1.0072619382626055e-01  1.1489300009041205e-01  1.2481728954186817e-01  1.5652175978629382e-01  1.7143891528891150e-01  1.6407702545033823e-01  1.9265613711349569e-01  1.8790264423930775e-01  1.8285792487540281e-01  1.8627255939921930e-01  1.4562351448962094e-01  1.5254242681269084e-01  1.0256547015597622e-01  7.2067273615657415e-02  3.7733909232463045e-02  5.1475607843761942e-02  8.2196489038370096e-02  1.2542605150457350e-01  1.2711605396990505e-01  1.6747442619059885e-01  1.6972976143387408e-01  1.7730167861209337e-01  1.8491065558281811e-01  1.6075783076158573e-01  1.6940113687943958e-01  1.5663506192066973e-01  1.2675640328413729e-01  1.1737227975775570e-01  1.0240623803186330e-01  7.2126144257159908e-02  5.8903857430330962e-02  4.6313098719199294e-02  2.8185823564959890e-02  2.2920382986986697e-02  1.7220085918731878e-02  1.3194786133093567e-02  1.0784430455352398e-02  1.8889759220901279e-02  2.8357406338088156e-02  4.9077613560459317e-02  6.1286106769981905e-02  5.6562568831409081e-02  6.7892822090235505e-02  6.0479999608018371e-02  3.5952817556351997e-02  2.6609663055677604e-02  5.3692812667836320e-02  7.7758558837699748e-02  2.1800779333030260e-01  4.5099771830996543e-01  5.5456491500770155e-01  2.5713735517308090e-02  4.9890819582643214e-02  5.6879408232244095e-03  5.7416233032528650e-03  9.9534895237550214e-02  6.6176841726710581e-02  4.2868687465580635e-01  4.1944466295225591e-01  1.3047472423277764e-01  1.0000295714049570e-01  4.3576969962432495e-02  2.8163221884023780e-02  3.6698766061144729e-02  5.2134426840825671e-02  4.5598160524198544e-02  5.3325165898555474e-02  4.3376494511123548e-02  2.5485005773715024e-02  1.7214046934736656e-02  1.0346820916052626e-02  1.3527093662151938e-02  1.7054036349698036e-02  2.5277793989649928e-02  2.4601368066411472e-02  2.3242875450022248e-02  2.4851066187521878e-02  6.2084899455547425e-02  5.4991007587120028e-02  1.0811502216691572e-02  1.2270534350566017e-02  1.3956952615550192e-02  1.6606315004503675e-02  7.9959057950974244e-02  7.1974541412495416e-02  4.5549165107262653e-02  4.8570378577777323e-02  1.5734526174756083e-01  1.4570914003660032e-01  4.5521633266856897e-02  4.2619257008597727e-02  1.7050131054265444e-01  1.8292670970202549e-01  4.2048096588090472e-02  4.2365971936009009e-02  3.7398944860399609e-02  3.7044513705834975e-02  2.3491505569878928e-02  2.4871239968701848e-02  5.2122535556473289e-02  5.2854654824256123e-02  4.6172380577161214e-02  4.6290366561697611e-02  1.6177965741594667e-02  1.5901164633373037e-02  6.5532584780419803e-02  6.0833779853452549e-02  7.1428492584474007e-02  6.6700770765402637e-02  2.1360180191015707e-01  2.0178569070120153e-01  8.2698482804956119e-02  7.8884060957150337e-02  8.2227798879891401e-02  8.5782665526424676e-02  1.9498536925519350e-01  2.0573228758907464e-01  1.1653767625635744e-01  1.1486021269494150e-01  1.1515095282321404e-01  1.1603155859867256e-01  6.3038594253133795e-02  6.0620989411257105e-02  2.8010737604366318e-02  3.0878411462872950e-02  7.4681804456517162e-02  7.9175170099572659e-02  8.8041556205634794e-02  8.2964622523869339e-02  7.0429345012133895e-02  6.2761899737556151e-02  5.6352759903165933e-02  5.6352471375500049e-02  5.1627022251487652e-02  5.1129517865473283e-02  8.9992228004090263e-02  8.1363211911128983e-02  1.1374197140627515e-01  1.0713459407835875e-01  9.3039368030497907e-02  8.7519099969953953e-02  9.2920181580783023e-02  9.8150360411876317e-02  1.2783440936578327e-01  1.2038615240540024e-01  2.1722005532321023e-02  2.6539059371059152e-02  4.0701303095664498e-02  3.4920758143745893e-02  3.7261026906767872e-02  3.7675209210988547e-02  4.8768049842607623e-02  4.8685960084588496e-02  5.3352114551198496e-02  5.2671583766158443e-02  3.1641693218161314e-02  3.2693781388746040e-02  2.7090810020290911e-02  2.8786248146789001e-02  7.0199943863347491e-02  7.1124100942808244e-02  7.5721015990197510e-02  7.4137557731695364e-02  2.9617013039056481e-02  3.3024273738881262e-02  1.4936272596111399e-02  1.3654009652161370e-02  1.6394286905857508e-02  1.9639809363422751e-02  1.0995301206782777e-01  1.0426390749189554e-01  1.1434294268347781e-01  1.0917091358024968e-01  2.2228915653388349e-02  2.1938473973279124e-02  2.0265757480981784e-02  2.0321890064111253e-02  9.3819937005482079e-02  8.9090323532907245e-02  1.7974634729635167e-01  1.6897128586295387e-01  9.3937351565158644e-02  9.8735605117958661e-02  1.7927661284532653e-01  1.9032552335361436e-01  1.7126813602634020e-01  1.5749555167667806e-01  8.6369352034249086e-02  8.7779452012485160e-02  9.0097007318848218e-02  9.2088229763109819e-02  2.0385056236665500e-01  2.2020174131205475e-01  2.3785861706616063e-02  2.7467884517601994e-02  1.1416147376174843e-01  1.1398739751603749e-01  3.9884198380370925e-02  3.9472404737548442e-02  3.8234325425572167e-02  3.7691051117714980e-02  4.2804045592879529e-02  4.2543697724536970e-02  3.1507139796204439e-02  3.0220046707163876e-02  8.4250510146042665e-02  8.5701439768933158e-02  1.0198223357371820e-01  1.0204051911924915e-01  9.9594974944740927e-02  9.8858859496660234e-02  2.2372960932998712e-01  2.1252685038723002e-01  1.2094863356582318e-01  1.1008395253204076e-01  1.0431002674025977e-01  1.0764081317395997e-01  1.1137330746731577e-01  1.0831600145919132e-01  1.5154620405452399e-01  1.4132185363111238e-01  1.1740658536273769e-01  1.1410315314582301e-01  1.1207293937559699e-01  1.1519288733786917e-01  3.6310528633583146e-02  3.2080498228496845e-02  4.7031377764745565e-02  4.1988261282191866e-02  1.1913498659806836e-01  1.1482541067318025e-01  1.2135550491482462e-01  1.1751511453887986e-01  8.6278349952797026e-02  9.5239972431666237e-02  8.9990903745002196e-02  9.1793993116697781e-02  9.6314273864553102e-02  9.3750765835391853e-02  1.2101248294326832e-01  1.1030166233844142e-01  1.1440027153050596e-01  1.1581473095012228e-01  8.0263843513226185e-02  9.2373952309587559e-02  3.2224141412443272e-02  3.2441877414712030e-02  3.8023651692812500e-02  3.7931886187326229e-02  4.0362740435993631e-02  4.0886494968135872e-02  2.8730649329041482e-02  2.8981591636612469e-02  1.3216078677700094e-01  1.3865817233350136e-01  1.2292553241352502e-01  1.3172331674446258e-01  1.3036016396626471e-01  1.3855985248347671e-01  1.4948698941643573e-01  1.4155194785086744e-01  1.0663568444431348e-01  9.7214141230293857e-02  1.7989477487851627e-02  2.0646528411061921e-02  1.8859083047692952e-02  1.7629837672799697e-02  1.2901319351273061e-01  1.1873074214221700e-01  3.4047432509726812e-02  3.4759099351763016e-02  7.1011857866726549e-02  7.0495865688633377e-02  7.5096357896515781e-02  7.6392829857618819e-02  2.6362699048458255e-02  2.7849730459634556e-02  1.9212072569387076e-02  2.3828765912563867e-02  3.2021324859265989e-02  3.1564454384690487e-02  2.6967635234424626e-02  2.7456757482059752e-02  3.3090022905384750e-02  3.9061357407225626e-02  3.8772954668228124e-02  3.4710460330514663e-02  4.2898905401868970e-02  4.7260777489874332e-02  1.5807590169509567e-01  1.6836764766069132e-01  1.2440529287789483e-01  1.1455585640463239e-01  1.3202251716751609e-01  1.2258529700796575e-01  1.4494492910900716e-01  1.5658575295847629e-01  1.0056333036583102e-01  9.7941692633949667e-02  2.5236782063624469e-01  2.3418688729215933e-01  2.8902205813637982e-01  2.7194581784365029e-01  1.0366394959233297e-01  1.0034802292286732e-01  2.4394407616912271e-02  2.3931377908640170e-02  2.8314398280666127e-02  2.8195256545794210e-02  1.3366951980030947e-01  1.2786402603607688e-01  1.3683900260353199e-01  1.3178296159135944e-01  7.8414258439260850e-02  7.2300927621364364e-02  8.5467111458137193e-02  9.2353357630761398e-02  1.0172852103151264e-01  1.0082760694416620e-01  9.3321142116997033e-02  1.0674289897429563e-01  3.1455539842161616e-02  3.2882018970648387e-02  1.0354710021824498e-01  1.0269168983584405e-01  2.7541098150738796e-02  3.0860986239687908e-02  1.0156139873626892e-01  1.0173700852022614e-01  1.0608296394264455e-01  9.9401008159990215e-02  1.3175971969213143e-01  1.1552109514504980e-01  3.4468356394403592e-02  3.2919444289108611e-02  9.2212883506873899e-02  9.3836015729334601e-02  9.5991557724280613e-02  9.8446421359370678e-02  3.5650858914009029e-02  3.9781080501517685e-02  1.1925163536130189e-01  1.2248489037086320e-01  1.2272174103093846e-01  1.1989038598826503e-01  1.8254989632476945e-02  1.6970593180929427e-02  3.5203687334346277e-02  3.5222681969848159e-02  3.7582330128176689e-02  3.7294371552939153e-02  4.3917933075739470e-02  5.0753379608691480e-02  6.9232637769600550e-02  6.1433998352806107e-02  3.2602399954187268e-02  3.2078368155734435e-02  1.4707432598630760e-01  1.3866977737558650e-01  1.5271047372664914e-01  1.4515819816234704e-01  6.1440496526729463e-02  5.7164945743583225e-02  6.7088114805434376e-02  6.2797677263571577e-02  6.8127182865754227e-02  6.4611364226591014e-02  2.0291994643819794e-01  2.1535431763988586e-01  2.0312248241430583e-01  1.9048756419021851e-01  6.1740862478004553e-02  6.5271417123849429e-02  8.3539529686491698e-02  8.2604802225837048e-02  3.3477490166361229e-02  3.2234098257958144e-02  8.7922499017949254e-02  8.6238051157980125e-02  2.3130295363722825e-02  2.4728192463682630e-02  2.4232101977254047e-02  2.1088651861725975e-02  2.9174901380774790e-02  2.5638884447472619e-02  1.1993273084266459e-01  1.1887715613764629e-01  1.2416627317030893e-01  1.2292786686104269e-01  4.7525104811755266e-02  4.2637553008474778e-02  1.0611975505219021e-01  1.0909051241886206e-01  1.0931828024113824e-01  1.1317673216370200e-01  6.4776311746191487e-02  5.6703718087121720e-02  7.4689787755933809e-02  7.9105310354495029e-02  8.1628750103938302e-02  8.6318992440954839e-02  1.0424132403605990e-01  1.2004580638996505e-01  9.1616373933789130e-02  8.3935010535229407e-02  3.4212370147675308e-02  3.3445862335625506e-02  4.2413408690288194e-02  4.2613479000631525e-02  5.8024997031664534e-02  5.5543533071061621e-02  8.5307332001514594e-02  8.8516460448788747e-02  8.5063204414002835e-02  8.7970064501268125e-02  9.7655074958249266e-02  1.0265811779820475e-01  6.7511786935937887e-02  6.8435638051534839e-02  2.7200153270208964e-02  2.6396393790484828e-02  3.2978606400441694e-02  3.2830149626438175e-02  6.4675154495685880e-02  6.5035675823261210e-02  4.6269173160873422e-02  4.5908068213350937e-02  3.4291028675926837e-02  3.3453922819847791e-02  1.3843655403948979e-01  1.2883124581170480e-01  6.1137250120165340e-02  6.4249992460972696e-02  6.5209941136018412e-02  6.8532421163118210e-02  1.5834382777827055e-01  1.4798716606665338e-01  1.1509202566452938e-01  1.0505921501859543e-01  3.8121400813693550e-02  3.5858415834655759e-02  4.1237958761020710e-02  4.3364858394254996e-02  1.4042244490703931e-01  1.2933772906568522e-01  8.9084076521998026e-02  9.7061138396521973e-02  1.0684861940399167e-01  1.1566131262836876e-01  1.7014553400544660e-01  1.5949749899214499e-01  1.6757791738824129e-01  1.7720237195823765e-01  5.5715983037769493e-02  5.0202262305066858e-02  6.3108468382593971e-02  6.9505460972728694e-02  1.3901918684607956e-02  1.3893297724068381e-02  1.4014337598063262e-02  1.4029648898253073e-02  4.9160429938173107e-02  4.9620358952957903e-02  2.4820294786928859e-02  2.6455340916460388e-02  4.0328853700063838e-02  4.0142689004766099e-02  4.0286969906623719e-02  3.9988020039267019e-02  1.8626792609441306e-02  1.8854053711052639e-02  3.0228160349329909e-02  3.0127455367373324e-02  3.0774421029658459e-02  3.0492744844908968e-02  1.6816806985775735e-02  1.6790222493969449e-02  5.4111989236256423e-02  5.3444835520928886e-02  2.3562984431443328e-02  2.3929371469733274e-02  2.7883892228373768e-02  2.7768505380957979e-02  5.1367924757742073e-02  5.1568662352944029e-02  2.0178266685816591e-02  2.2562638243807207e-02  2.7951086652105859e-02  2.4176764987424038e-02  9.9505935203554385e-02  1.1119710572484805e-01  1.1352772500135246e-01  1.0901774919602046e-01  1.1661488879320296e-01  1.1129765747166928e-01  1.4764184909989250e-01  1.3347219592053033e-01  1.1901147181941250e-01  1.1763942848150731e-01  2.6040527902609648e-02  2.2301749393849317e-02  1.1477990066712278e-01  1.2128537872048084e-01  2.4260585298492057e-01  2.6510006363372618e-01  1.9513796105261552e-01  1.7613916603700677e-01  1.2300202102623031e-01  1.1573261300213812e-01  5.8262962032482712e-02  5.9053597049109570e-02  1.7396409248814679e-02  1.9201723584068645e-02  2.0596106500720152e-02  2.0658915811195649e-02  5.3924758446698702e-02  5.4153148519771162e-02  3.7839683009155523e-02  4.3774316713460097e-02  5.2309013471053073e-02  5.9032687198919062e-02  1.7198979201397773e-02  1.9441055955728013e-02  1.1956975765616094e-01  1.1462574255985739e-01  1.0888531663187459e-01  1.1055937759565905e-01  1.0901811316383223e-01  1.0678282731311048e-01  6.9124806005454578e-02  6.6647173285103806e-02  1.2398679710065651e-01  1.1957847757530107e-01  1.3376033775032814e-01  1.4537842968622205e-01  1.4329874736867845e-01  1.5414117243526088e-01  1.2670934983267065e-01  1.2013126574317652e-01  2.7543730055670828e-02  2.4630970907673983e-02  3.2913334222859254e-02  3.6857207049730507e-02  1.6012395227179133e-01  1.5000991875690059e-01  7.4967647047047392e-02  7.1425076682717914e-02  7.5829226481229570e-02  7.9548847899719069e-02  1.7585050140953321e-01  1.6536478629791621e-01  3.9310596057561376e-02  3.7191377246548057e-02  1.0605042534968163e-01  1.0806337852618271e-01  1.1235516465963351e-01  1.0941302554925027e-01  2.7774353511553045e-02  2.5654041954108860e-02  2.1136599927208663e-02  1.8422844214515281e-02  2.5607661136004670e-02  2.2021851704163042e-02  3.9141219519047879e-02  3.9148723800071089e-02  3.0953126699437544e-02  3.0377265200542878e-02  1.1529186117311511e-01  1.1391335897826700e-01  1.0322847739243421e-01  1.0452395804732247e-01  3.1680862875657988e-02  3.1350670685374983e-02  2.7828331599958712e-02  2.7835277242354729e-02  1.4930672713079254e-01  1.3722604893519666e-01  5.2819410386156958e-02  5.5092179465337308e-02  6.0726780161690169e-02  5.8926923496015172e-02  1.6851793456536682e-01  1.8195485165958547e-01  3.2210065796422771e-02  3.2516734278945435e-02  3.0384229143018089e-02  3.0361562830538747e-02  1.2125109086156591e-01  1.1895479780669672e-01  2.1836762766045664e-02  2.4816334698376116e-02  1.7387088857767871e-01  1.6661239489817214e-01  1.6944116581954921e-01  1.6110454794145970e-01  1.3106501589587014e-01  1.4923908332943012e-01  1.1562793864574696e-01  1.3094544454445819e-01  1.4672636528325547e-01  1.3122439037307093e-01  1.4400088574586714e-01  1.2719413376612118e-01  4.3642953995040562e-02  4.3731564939861363e-02  3.7321583964103823e-02  3.6617805822600241e-02  3.6152445279807877e-02  4.0581176808467470e-02  7.1899656147139793e-02  7.0239666510970647e-02  1.0644639509231786e-01  1.2235600675209894e-01  1.3969194807060736e-01  1.5975021907655240e-01  9.5225177133901565e-02  1.0123383215702722e-01  1.1426931326365386e-01  1.0736114052925508e-01  1.2362599789006186e-01  1.3124262780356089e-01  1.3654596689618920e-01  1.4832289391716391e-01  1.2645859332408971e-01  1.3885229801210500e-01  1.3453480460839326e-01  1.2419627502053504e-01  7.2079328755222147e-02  7.4428229991517769e-02  2.3360171181907846e-01  2.4859984166208487e-01  7.7760925293124769e-02  7.9504519095386153e-02  2.1246178929371284e-01  1.9829387530854378e-01  2.1242397635991419e-02  2.0878480431433387e-02  2.4703264108094456e-02  2.3083961520205722e-02  8.9899505451473238e-02  8.5145970153396255e-02  9.0671991013629993e-02  9.5230909939105074e-02  1.4453616080477208e-01  1.3842621237207209e-01  9.6128630082191108e-02  9.2645378482165044e