<?xml version="1.0"?>
<VTKFile type="UnstructuredGrid"  version="0.1"  >
<UnstructuredGrid>
<Piece  NumberOfPoints="1306" NumberOfCells="2356">
<Points>
<DataArray  type="Float64"  NumberOfComponents="3"  format="ascii">-0.75 0 0  0.75 0 0  -1 -1 0  1 -1 0  1 1 0  -1 1 0  -0.7483941924290298 -0.04905234692143039 0  -0.7435836460305191 -0.09789464416381397 0  -0.7355889603026755 -0.146317741510826 0  -0.724444369717141 -0.1941142838256225 0  -0.7101975971217644 -0.241079598976089 0  -0.692909649384 -0.2870125742725258 0  -0.6726545561501824 -0.3317165176628999 0  -0.6495190528391268 -0.3749999999986182 0  -0.623602209227858 -0.4166776747632813 0  -0.595015005219523 -0.4565710717551114 0  -0.5638798556104562 -0.494509361323657 0  -0.5303300858913566 -0.5303300858884648 0  -0.4945093613266868 -0.5638798556077991 0  -0.4565710717583048 -0.5950150052170725 0  -0.4166776747666322 -0.623602209225619 0  -0.3750000000020135 -0.6495190528371666 0  -0.3317165176664049 -0.672654556148454 0  -0.2870125742761139 -0.6929096493825138 0  -0.2410795989798009 -0.7101975971205046 0  -0.1941142838294851 -0.724444369716106 0  -0.146317741514802 -0.7355889603018846 0  -0.09789464416785587 -0.7435836460299869 0  -0.04905234692555992 -0.7483941924287592 0  -3.00247756090001e-12 -0.75 0  0.04905234691972851 -0.7483941924291413 0  0.0978946441623841 -0.7435836460307073 0  0.1463177415096285 -0.7355889603029137 0  0.1941142838246269 -0.7244443697174078 0  0.2410795989753896 -0.7101975971220019 0  0.2870125742720389 -0.6929096493842017 0  0.3317165176626459 -0.6726545561503078 0  0.3749999999985991 -0.6495190528391378 0  0.41667767476353 -0.6236022092276918 0  0.4565710717555842 -0.5950150052191601 0  0.4945093613242373 -0.5638798556099472 0  0.5303300858892341 -0.5303300858905872 0  0.5638798556087157 -0.4945093613256417 0  0.5950150052180718 -0.4565710717570025 0  0.6236022092267106 -0.4166776747649985 0  0.6495190528382387 -0.3750000000001563 0  0.672654556149483 -0.3317165176643182 0  0.6929096493834934 -0.2870125742737488 0  0.7101975971214048 -0.2410795989771483 0  0.7244443697169077 -0.1941142838264931 0  0.7355889603025434 -0.1463177415114902 0  0.7435836460304667 -0.09789464416421147 0  0.7483941924290169 -0.04905234692162523 0  0.7483941924290298 0.04905234692143039 0  0.7435836460305191 0.09789464416381397 0  0.7355889603026755 0.146317741510826 0  0.724444369717141 0.1941142838256225 0  0.7101975971217644 0.241079598976089 0  0.692909649384 0.2870125742725258 0  0.6726545561501824 0.3317165176628999 0  0.6495190528391268 0.3749999999986182 0  0.623602209227858 0.4166776747632813 0  0.595015005219523 0.4565710717551114 0  0.5638798556104562 0.494509361323657 0  0.5303300858913566 0.5303300858884648 0  0.4945093613266868 0.5638798556077991 0  0.4565710717583048 0.5950150052170725 0  0.4166776747666322 0.623602209225619 0  0.3750000000020135 0.6495190528371666 0  0.3317165176664049 0.672654556148454 0  0.2870125742761139 0.6929096493825138 0  0.2410795989798009 0.7101975971205046 0  0.1941142838294851 0.724444369716106 0  0.146317741514802 0.7355889603018846 0  0.09789464416785587 0.7435836460299869 0  0.04905234692555992 0.7483941924287592 0  3.00247756090001e-12 0.75 0  -0.04905234691972851 0.7483941924291413 0  -0.0978946441623841 0.7435836460307073 0  -0.1463177415096285 0.7355889603029137 0  -0.1941142838246269 0.7244443697174078 0  -0.2410795989753896 0.7101975971220019 0  -0.2870125742720389 0.6929096493842017 0  -0.3317165176626459 0.6726545561503078 0  -0.3749999999985991 0.6495190528391378 0  -0.41667767476353 0.6236022092276918 0  -0.4565710717555842 0.5950150052191601 0  -0.4945093613242373 0.5638798556099472 0  -0.5303300858892341 0.5303300858905872 0  -0.5638798556087157 0.4945093613256417 0  -0.5950150052180718 0.4565710717570025 0  -0.6236022092267106 0.4166776747649985 0  -0.6495190528382387 0.3750000000001563 0  -0.672654556149483 0.3317165176643182 0  -0.6929096493834934 0.2870125742737488 0  -0.7101975971214048 0.2410795989771483 0  -0.7244443697169077 0.1941142838264931 0  -0.7355889603025434 0.1463177415114902 0  -0.7435836460304667 0.09789464416421147 0  -0.7483941924290169 0.04905234692162523 0  -1 0.9500000000001387 0  -1 0.9000000000002774 0  -1 0.8500000000004161 0  -1 0.8000000000005548 0  -1 0.7500000000006934 0  -1 0.7000000000008322 0  -1 0.6500000000009709 0  -1 0.6000000000011096 0  -1 0.5500000000012482 0  -1 0.500000000001387 0  -1 0.4500000000015257 0  -1 0.4000000000016644 0  -1 0.3500000000018031 0  -1 0.3000000000019418 0  -1 0.2500000000020806 0  -1 0.2000000000022192 0  -1 0.1500000000023578 0  -1 0.1000000000024964 0  -1 0.05000000000263527 0  -1 2.752242878045763e-12 0  -1 -0.04999999999736482 0  -1 -0.09999999999750342 0  -1 -0.149999999997642 0  -1 -0.1999999999977808 0  -1 -0.2499999999979194 0  -1 -0.2999999999980583 0  -1 -0.3499999999981969 0  -1 -0.3999999999983355 0  -1 -0.4499999999984743 0  -1 -0.4999999999986129 0  -1 -0.5499999999987515 0  -1 -0.5999999999988903 0  -1 -0.6499999999990291 0  -1 -0.699999999999168 0  -1 -0.7499999999993066 0  -1 -0.7999999999994454 0  -1 -0.849999999999584 0  -1 -0.8999999999997226 0  -1 -0.9499999999998614 0  -0.9500000000001387 -1 0  -0.9000000000002774 -1 0  -0.8500000000004161 -1 0  -0.8000000000005548 -1 0  -0.7500000000006934 -1 0  -0.7000000000008322 -1 0  -0.6500000000009709 -1 0  -0.6000000000011096 -1 0  -0.5500000000012482 -1 0  -0.500000000001387 -1 0  -0.4500000000015257 -1 0  -0.4000000000016644 -1 0  -0.3500000000018031 -1 0  -0.3000000000019418 -1 0  -0.2500000000020806 -1 0  -0.2000000000022192 -1 0  -0.1500000000023578 -1 0  -0.1000000000024964 -1 0  -0.05000000000263527 -1 0  -2.752242878045763e-12 -1 0  0.04999999999736482 -1 0  0.09999999999750342 -1 0  0.149999999997642 -1 0  0.1999999999977808 -1 0  0.2499999999979194 -1 0  0.2999999999980583 -1 0  0.3499999999981969 -1 0  0.3999999999983355 -1 0  0.4499999999984743 -1 0  0.4999999999986129 -1 0  0.5499999999987515 -1 0  0.5999999999988903 -1 0  0.6499999999990291 -1 0  0.699999999999168 -1 0  0.7499999999993066 -1 0  0.7999999999994454 -1 0  0.849999999999584 -1 0  0.8999999999997226 -1 0  0.9499999999998614 -1 0  1 -0.9500000000001387 0  1 -0.9000000000002774 0  1 -0.8500000000004161 0  1 -0.8000000000005548 0  1 -0.7500000000006934 0  1 -0.7000000000008322 0  1 -0.6500000000009709 0  1 -0.6000000000011096 0  1 -0.5500000000012482 0  1 -0.500000000001387 0  1 -0.4500000000015257 0  1 -0.4000000000016644 0  1 -0.3500000000018031 0  1 -0.3000000000019418 0  1 -0.2500000000020806 0  1 -0.2000000000022192 0  1 -0.1500000000023578 0  1 -0.1000000000024964 0  1 -0.05000000000263527 0  1 -2.752242878045763e-12 0  1 0.04999999999736482 0  1 0.09999999999750342 0  1 0.149999999997642 0  1 0.1999999999977808 0  1 0.2499999999979194 0  1 0.2999999999980583 0  1 0.3499999999981969 0  1 0.3999999999983355 0  1 0.4499999999984743 0  1 0.4999999999986129 0  1 0.5499999999987515 0  1 0.5999999999988903 0  1 0.6499999999990291 0  1 0.699999999999168 0  1 0.7499999999993066 0  1 0.7999999999994454 0  1 0.849999999999584 0  1 0.8999999999997226 0  1 0.9499999999998614 0  0.9500000000001387 1 0  0.9000000000002774 1 0  0.8500000000004161 1 0  0.8000000000005548 1 0  0.7500000000006934 1 0  0.7000000000008322 1 0  0.6500000000009709 1 0  0.6000000000011096 1 0  0.5500000000012482 1 0  0.500000000001387 1 0  0.4500000000015257 1 0  0.4000000000016644 1 0  0.3500000000018031 1 0  0.3000000000019418 1 0  0.2500000000020806 1 0  0.2000000000022192 1 0  0.1500000000023578 1 0  0.1000000000024964 1 0  0.05000000000263527 1 0  2.752242878045763e-12 1 0  -0.04999999999736482 1 0  -0.09999999999750342 1 0  -0.149999999997642 1 0  -0.1999999999977808 1 0  -0.2499999999979194 1 0  -0.2999999999980583 1 0  -0.3499999999981969 1 0  -0.3999999999983355 1 0  -0.4499999999984743 1 0  -0.4999999999986129 1 0  -0.5499999999987515 1 0  -0.5999999999988903 1 0  -0.6499999999990291 1 0  -0.699999999999168 1 0  -0.7499999999993066 1 0  -0.7999999999994454 1 0  -0.849999999999584 1 0  -0.8999999999997226 1 0  -0.9499999999998614 1 0  -0.7260115133073834 -0.7140490773999831 0  0.7260115133073831 0.714049077399983 0  -0.7259989903580564 0.7215170646134543 0  0.7259989903580564 -0.7215170646134541 0  -0.5300853173097423 -0.792282260021314 0  0.5300853173097421 0.792282260021314 0  0.794797039310626 0.5313449954119724 0  -0.7947970393106262 -0.5313449954119722 0  -0.7947970393108137 0.5313449954117953 0  0.7947970393108138 -0.5313449954117948 0  0.5300853173099099 -0.7922822600211799 0  -0.5300853173099103 0.79228226002118 0  -0.8357139439634808 -0.3708726251916453 0  0.8357139439634808 0.3708726251916455 0  -0.3708726251918615 -0.83571394396348 0  0.370872625191861 0.8357139439634801 0  -0.8357139439633258 0.3708726251916861 0  0.835713943963326 -0.3708726251916857 0  -0.3708726251916093 0.8357139439634489 0  0.3708726251916093 -0.8357139439634491 0  0.8392516870008371 0.839251687000897 0  -0.8392516870008372 -0.839251687000897 0  -0.8392516870008968 0.8392516870008369 0  0.8392516870008971 -0.8392516870008373 0  -0.6626193941577174 -0.8557964915952936 0  0.6626193941577173 0.8557964915952936 0  0.8546710446522048 0.6596143676303845 0  -0.854671044652205 -0.6596143676303846 0  -0.8557964915952931 0.662619394157717 0  0.8557964915952931 -0.6626193941577159 0  0.662697867482178 -0.8500832691531113 0  -0.6626978674821781 0.8500832691531111 0  -0.6675773651915434 -0.5944904026702718 0  0.6675773651915433 0.5944904026702719 0  0.6675773651917545 -0.5944904026700938 0  -0.6675773651917546 0.5944904026700941 0  -0.234538632926149 -0.8601900702283434 0  0.2345386329261488 0.8601900702283434 0  -0.8601900702277013 0.2345386329248857 0  0.8601900702277013 -0.2345386329248854 0  -0.8601900702274715 -0.2345386329250451 0  0.8601900702274712 0.2345386329250446 0  -0.2345386329245444 0.8601900702272047 0  0.234538632924544 -0.8601900702272047 0  -0.8702832009676685 0.08641113760258684 0  0.8702832009676686 -0.0864111376025866 0 
[...]
<PointData  Vectors="Displacement">
<DataArray  type="Float64"  Name="Displacement"  NumberOfComponents="3" format="ascii">-4.6967086171680959e-02 -1.2971292701341156e-02 0.0000000000000000e+00  4.4678505954207158e-02 -1.1406450929122083e-02 0.0000000000000000e+00  0.0000000000000000e+00 0.0000000000000000e+00 0.0000000000000000e+00  0.0000000000000000e+00 0.0000000000000000e+00 0.0000000000000000e+00  -1.1294618462985937e-02 -7.1795278158889040e-03 0.0000000000000000e+00  1.1325723413427200e-02 -9.5503749351897420e-03 0.0000000000000000e+00  -4.3659387902850184e-02 -1.0631164565946209e-02 0.0000000000000000e+00  -3.9912789168348735e-02 -8.4838392772757475e-03 0.0000000000000000e+00  -3.5847552205915470e-02 -6.4708101255590202e-03 0.0000000000000000e+00  -3.1776346192080876e-02 -4.7449451908729151e-03 0.0000000000000000e+00  -2.7694320795754450e-02 -3.2120998792215263e-03 0.0000000000000000e+00  -2.3845162694560319e-02 -1.9212983462368848e-03 0.0000000000000000e+00  -2.0265232349490316e-02 -8.1461664315821234e-04 0.0000000000000000e+00  -1.7070204567024336e-02 1.1704939377405188e-04 0.0000000000000000e+00  -1.4110598991459869e-02 7.6509471995904368e-04 0.0000000000000000e+00  -1.1595732636503783e-02 1.3047940512227554e-03 0.0000000000000000e+00  -9.3618729404138842e-03 1.5848301096332334e-03 0.0000000000000000e+00  -7.5072405151924123e-03 1.7553296530527002e-03 0.0000000000000000e+00  -5.9645521999754829e-03 1.7598570864838146e-03 0.0000000000000000e+00  -4.6321446618926669e-03 1.6165548720795014e-03 0.0000000000000000e+00  -3.5881512563828359e-03 1.4046071382687207e-03 0.0000000000000000e+00  -2.8000681336481609e-03 1.1903579712700769e-03 0.0000000000000000e+00  -2.1578041551952982e-03 9.1105619171399747e-04 0.0000000000000000e+00  -1.6527626289300987e-03 6.6599898949540293e-04 0.0000000000000000e+00  -1.2423902384482565e-03 4.4621491325510740e-04 0.0000000000000000e+00  -9.2425408720033008e-04 2.6024182279051674e-04 0.0000000000000000e+00  -6.6428784137316000e-04 1.4154590262618403e-04 0.0000000000000000e+00  -4.3632279006873683e-04 5.1884466464359536e-05 0.0000000000000000e+00  -2.1948589281765062e-04 -5.7663821364007234e-07 0.0000000000000000e+00  -1.9116691255292066e-05 -1.3475902716506913e-05 0.0000000000000000e+00  1.7916137196440047e-04 1.9474850930965064e-07 0.0000000000000000e+00  3.9295272609582373e-04 4.2478767463975402e-05 0.0000000000000000e+00  6.1668933413299191e-04 1.2906759763660071e-04 0.0000000000000000e+00  8.6877075149278851e-04 2.4535640235456580e-04 0.0000000000000000e+00  1.1736373603968640e-03 4.2183966074074242e-04 0.0000000000000000e+00  1.5640833669370415e-03 6.3288996289966146e-04 0.0000000000000000e+00  2.0424151150237944e-03 8.7057413022246220e-04 0.0000000000000000e+00  2.6484902200961708e-03 1.1439639803809828e-03 0.0000000000000000e+00  3.3909180454057943e-03 1.3599220546680040e-03 0.0000000000000000e+00  4.3729020398338382e-03 1.5784506700846355e-03 0.0000000000000000e+00  5.6259633564553282e-03 1.7384447228656964e-03 0.0000000000000000e+00  7.0772108902480277e-03 1.7646268614020045e-03 0.0000000000000000e+00  8.8237465679169309e-03 1.6394003172001657e-03 0.0000000000000000e+00  1.0928992743686911e-02 1.4178153197983614e-03 0.0000000000000000e+00  1.3302041177964803e-02 9.5625323467795698e-04 0.0000000000000000e+00  1.6099631708191963e-02 4.0129602054636928e-04 0.0000000000000000e+00  1.9123797958842469e-02 -4.1998621419906323e-04 0.0000000000000000e+00  2.2517112104095866e-02 -1.3982076454714376e-03 0.0000000000000000e+00  2.6175569537657029e-02 -2.5446073886265051e-03 0.0000000000000000e+00  3.0066666736835352e-02 -3.9163379862139809e-03 0.0000000000000000e+00  3.3983200535638379e-02 -5.4677261248925789e-03 0.0000000000000000e+00  3.7826470540756170e-02 -7.2134744779853250e-03 0.0000000000000000e+00  4.1446948149192440e-02 -9.2823372760238079e-03 0.0000000000000000e+00  4.7288183337054139e-02 -1.3738129964674066e-02 0.0000000000000000e+00  4.9291506168177235e-02 -1.6378008350395157e-02 0.0000000000000000e+00  5.0453950066022567e-02 -1.9214989151537701e-02 0.0000000000000000e+00  5.0823901696183511e-02 -2.2111327543740560e-02 0.0000000000000000e+00  5.0565878775410182e-02 -2.5334280680742709e-02 0.0000000000000000e+00  4.9606579622378640e-02 -2.8863053990849968e-02 0.0000000000000000e+00  4.7968547028024437e-02 -3.2555594782711583e-02 0.0000000000000000e+00  4.5889565600335545e-02 -3.6310665493802130e-02 0.0000000000000000e+00  4.3603851695436839e-02 -4.0521704241769090e-02 0.0000000000000000e+00  4.0971216828282475e-02 -4.4784005945828272e-02 0.0000000000000000e+00  3.8233675131584703e-02 -4.9376879810220091e-02 0.0000000000000000e+00  3.5389750870562682e-02 -5.4123262184972362e-02 0.0000000000000000e+00  3.2500297937582377e-02 -5.9133205505544698e-02 0.0000000000000000e+00  2.9650666000682394e-02 -6.4400314707999506e-02 0.0000000000000000e+00  2.6742779740929777e-02 -6.9821477069116622e-02 0.0000000000000000e+00  2.3834089864863975e-02 -7.5314464228552383e-02 0.0000000000000000e+00  2.0851194462429515e-02 -8.0798278489521175e-02 0.0000000000000000e+00  1.7698255859694031e-02 -8.6123038120917164e-02 0.0000000000000000e+00  1.4400406080589250e-02 -9.0793498115816704e-02 0.0000000000000000e+00  1.1108785359414510e-02 -9.4600757643381453e-02 0.0000000000000000e+00  8.0467249022293918e-03 -9.7390745460684408e-02 0.0000000000000000e+00  5.2295536301289764e-03 -9.9133217986102862e-02 0.0000000000000000e+00  2.5305170332544937e-03 -9.9969187084624114e-02 0.0000000000000000e+00  3.4299905098455813e-04 -1.0035929485381137e-01 0.0000000000000000e+00  -1.7860051360720957e-03 -1.0031270537935974e-01 0.0000000000000000e+00  -4.1989242648953094e-03 -9.9920005824825728e-02 0.0000000000000000e+00  -6.9820482602179516e-03 -9.8837640299725679e-02 0.0000000000000000e+00  -1.0007134930202397e-02 -9.6844866010701011e-02 0.0000000000000000e+00  -1.3422481443768824e-02 -9.3865537295801244e-02 0.0000000000000000e+00  -1.7010754061457221e-02 -8.9857797945837398e-02 0.0000000000000000e+00  -2.0534371017126331e-02 -8.4939233781190698e-02 0.0000000000000000e+00  -2.3882762583603726e-02 -7.9664599757366103e-02 0.0000000000000000e+00  -2.7098564469192558e-02 -7.4210061332169827e-02 0.0000000000000000e+00  -3.0311041637652504e-02 -6.8732110212370565e-02 0.0000000000000000e+00  -3.3424935470411581e-02 -6.3337463699207022e-02 0.0000000000000000e+00  -3.6532326018317962e-02 -5.8169777994983782e-02 0.0000000000000000e+00  -3.9573668534074853e-02 -5.3241216163977631e-02 0.0000000000000000e+00  -4.2494715663799816e-02 -4.8455398682767048e-02 0.0000000000000000e+00  -4.5294303212560422e-02 -4.3997514940736296e-02 0.0000000000000000e+00  -4.7735122027877247e-02 -3.9580890246717598e-02 0.0000000000000000e+00  -4.9959314155236169e-02 -3.5627046030566288e-02 0.0000000000000000e+00  -5.1731280423018167e-02 -3.1724850832405525e-02 0.0000000000000000e+00  -5.2800144161348130e-02 -2.7978527818307338e-02 0.0000000000000000e+00  -5.3131346400587566e-02 -2.4529560233449731e-02 0.0000000000000000e+00  -5.2833217930063958e-02 -2.1422840495548264e-02 0.0000000000000000e+00  -5.1651343823095691e-02 -1.8486714764079173e-02 0.0000000000000000e+00  -4.9633380126856169e-02 -1.5495790130790560e-02 0.0000000000000000e+00  6.0219365077902763e-03 -9.5587454520169278e-03 0.0000000000000000e+00  6.8117253291664524e-04 -9.5842996123536358e-03 0.0000000000000000e+00  -4.6688415167406103e-03 -9.6655100439689140e-03 0.0000000000000000e+00  -1.0003577484765108e-02 -9.8261130197137714e-03 0.0000000000000000e+00  -1.5279849389242074e-02 -1.0046408217182664e-02 0.0000000000000000e+00  -2.0448850214153328e-02 -1.0358957320207605e-02 0.0000000000000000e+00  -2.5497355704834215e-02 -1.0814050701510324e-02 0.0000000000000000e+00  -3.0341138209735389e-02 -1.1311775251887984e-02 0.0000000000000000e+00  -3.4959987312984470e-02 -1.1956381964491156e-02 0.0000000000000000e+00  -3.9286860645402003e-02 -1.2797903367244670e-02 0.0000000000000000e+00  -4.3224591123460665e-02 -1.3734790335779439e-02 0.0000000000000000e+00  -4.6660865865276450e-02 -1.4767082564266940e-02 0.0000000000000000e+00  -4.9569692650899465e-02 -1.6031442776607511e-02 0.0000000000000000e+00  -5.1777561914903777e-02 -1.7343089277778060e-02 0.0000000000000000e+00  -5.3287746880000222e-02 -1.8647081406363127e-02 0.0000000000000000e+00  -5.4027328434991306e-02 -2.0110304426316394e-02 0.0000000000000000e+00  -5.3670227430083296e-02 -2.1422010732845706e-02 0.0000000000000000e+00  -5.2819904714089504e-02 -2.2606642679789849e-02 0.0000000000000000e+00  -5.0878003483521381e-02 -2.3748306250207563e-02 0.0000000000000000e+00  -4.8264952893422065e-02 -2.4528463572211199e-02 0.0000000000000000e+00  -4.5039892385161658e-02 -2.4983573603936358e-02 0.0000000000000000e+00  -4.1337709171791304e-02 -2.5133119936592785e-02 0.0000000000000000e+00  -3.7257834012896590e-02 -2.4868250727412358e-02 0.0000000000000000e+00  -3.3162593582426396e-02 -2.4310136540869581e-02 0.0000000000000000e+00  -2.9065118100334335e-02 -2.3438650759560520e-02 0.0000000000000000e+00  -2.5125596912293748e-02 -2.2291745138604442e-02 0.0000000000000000e+00  -2.1393693475641525e-02 -2.0895161047203476e-02 0.0000000000000000e+00  -1.8046129030054831e-02 -1.9345706381300867e-02 0.0000000000000000e+00  -1.5005976114860356e-02 -1.7724755792706253e-02 0.0000000000000000e+00  -1.2360393103044086e-02 -1.6025724702825737e-02 0.0000000000000000e+00  -1.0071076292629386e-02 -1.4257458068596601e-02 0.0000000000000000e+00  -8.1049528190593710e-03 -1.2553446453248268e-02 0.0000000000000000e+00  -6.4554397006887278e-03 -1.0909191129794646e-02 0.0000000000000000e+00  -5.0896368106478178e-03 -9.2213365432872261e-03 0.0000000000000000e+00  -3.9511180122152921e-03 -7.6441473449728051e-03 0.0000000000000000e+00  -3.0477159792161534e-03 -6.1158213112407775e-03 0.0000000000000000e+00  -2.2964915698668324e-03 -4.5969596152413781e-03 0.0000000000000000e+00  -1.6721953527777395e-03 -3.1416938770150800e-03 0.0000000000000000e+00  -1.0680054033306379e-03 -1.6685888174903551e-03 0.0000000000000000e+00  0.0000000000000000e+00 0.0000000000000000e+00 0.0000000000000000e+00  0.0000000000000000e+00 0.0000000000000000e+00 0.0000000000000000e+00  0.0000000000000000e+00 0.0000000000000000e+00 0.0000000000000000e+00  0.0000000000000000e+00 0.0000000000000000e+00 0.0000000000000000e+00  0.0000000000000000e+00 0.0000000000000000e+00 0.0000000000000000e+00  0.0000000000000000e+00 0.0000000000000000e+00 0.0000000000000000e+00  0.0000000000000000e+00 0.0000000000000000e+00 0.0000000000000000e+00  0.0000000000000000e+00 0.0000000000000000e+00 0.0000000000000000e+00  0.0000000000000000e+00 0.0000000000000000e+00 0.0000000000000000e+00  0.0000000000000000e+00 0.0000000000000000e+00 0.0000000000000000e+00  0.0000000000000000e+00 0.0000000000000000e+00 0.0000000000000000e+00  0.0000000000000000e+00 0.0000000000000000e+00 0.0000000000000000e+00  0.0000000000000000e+00 0.0000000000000000e+00 0.0000000000000000e+00  0.0000000000000000e+00 0.0000000000000000e+00 0.0000000000000000e+00  0.0000000000000000e+00 0.0000000000000000e+00 0.0000000000000000e+00  0.0000000000000000e+00 0.0000000000000000e+00 0.0000000000000000e+00  0.0000000000000000e+00 0.0000000000000000e+00 0.0000000000000000e+00  0.0000000000000000e+00 0.0000000000000000e+00 0.0000000000000000e+00  0.0000000000000000e+00 0.0000000000000000e+00 0.0000000000000000e+00  0.0000000000000000e+00 0.0000000000000000e+00 0.0000000000000000e+00  0.0000000000000000e+00 0.0000000000000000e+00 0.0000000000000000e+00  0.0000000000000000e+00 0.0000000000000000e+00 0.0000000000000000e+00  0.0000000000000000e+00 0.0000000000000000e+00 0.0000000000000000e+00  0.0000000000000000e+00 0.0000000000000000e+00 0.0000000000000000e+00  0.0000000000000000e+00 0.0000000000000000e+00 0.0000000000000000e+00  0.0000000000000000e+00 0.0000000000000000e+00 0.0000000000000000e+00  0.0000000000000000e+00 0.0000000000000000e+00 0.0000000000000000e+00  0.0000000000000000e+00 0.0000000000000000e+00 0.0000000000000000e+00  0.0000000000000000e+00 0.0000000000000000e+00 0.0000000000000000e+00  0.0000000000000000e+00 0.0000000000000000e+00 0.0000000000000000e+00  0.0000000000000000e+00 0.0000000000000000e+00 0.0000000000000000e+00  0.0000000000000000e+00 0.0000000000000000e+00 0.0000000000000000e+00  0.0000000000000000e+00 0.0000000000000000e+00 0.0000000000000000e+00  0.0000000000000000e+00 0.0000000000000000e+00 0.0000000000000000e+00  0.0000000000000000e+00 0.0000000000000000e+00 0.0000000000000000e+00  0.0000000000000000e+00 0.0000000000000000e+00 0.0000000000000000e+00  0.0000000000000000e+00 0.0000000000000000e+00 0.0000000000000000e+00  0.0000000000000000e+00 0.0000000000000000e+00 0.0000000000000000e+00  0.0000000000000000e+00 0.0000000000000000e+00 0.0000000000000000e+00  9.8130658873034891e-04 -1.5389174384835098e-03 0.0000000000000000e+00  1.5408926558099602e-03 -2.8987352080101130e-03 0.0000000000000000e+00  2.1191069518251299e-03 -4.2418486112649036e-03 0.0000000000000000e+00  2.8199950477125865e-03 -5.6475377419379757e-03 0.0000000000000000e+00  3.6653211182968541e-03 -7.0585672310905399e-03 0.0000000000000000e+00  4.7293350802137275e-03 -8.5213261267471242e-03 0.0000000000000000e+00  6.0152680322115076e-03 -1.0087375826623031e-02 0.0000000000000000e+00  7.5679187375022848e-03 -1.1608893240383947e-02 0.0000000000000000e+00  9.4159083116103649e-03 -1.3189180055458225e-02 0.0000000000000000e+00  1.1571079391285760e-02 -1.4832230882329732e-02 0.0000000000000000e+00  1.4065505439179627e-02 -1.6411129904634194e-02 0.0000000000000000e+00  1.6936853285112723e-02 -1.7917310072900851e-02 0.0000000000000000e+00  2.0103754813238440e-02 -1.9358825529683255e-02 0.0000000000000000e+00  2.3641805587008881e-02 -2.0657165182461894e-02 0.0000000000000000e+00  2.7385586185290849e-02 -2.1720010128236333e-02 0.0000000000000000e+00  3.1290778652344725e-02 -2.2523980939881470e-02 0.0000000000000000e+00  3.5209394363166606e-02 -2.3026689607072864e-02 0.0000000000000000e+00  3.9119869571771188e-02 -2.3246956715501303e-02 0.0000000000000000e+00  4.2685128928166491e-02 -2.3072856155569255e-02 0.0000000000000000e+00  4.5801096526924885e-02 -2.2572101635709236e-02 0.0000000000000000e+00  4.8333806370624080e-02 -2.1830976065243844e-02 0.0000000000000000e+00  5.0266389997205591e-02 -2.0695301566973554e-02 0.0000000000000000e+00  5.1145912146292410e-02 -1.9508020045620370e-02 0.0000000000000000e+00  5.1557574935738787e-02 -1.8193136112094978e-02 0.0000000000000000e+00  5.0917866774054146e-02 -1.6724381251910791e-02 0.0000000000000000e+00  4.9534698729456088e-02 -1.5400154522640902e-02 0.0000000000000000e+00  4.7472623651093344e-02 -1.4062312338744179e-02 0.0000000000000000e+00  4.4724508877866019e-02 -1.2765230594875755e-02 0.0000000000000000e+00  4.1458196708036882e-02 -1.1689212539801650e-02 0.0000000000000000e+00  3.7693770830496860e-02 -1.0703092011003987e-02 0.0000000000000000e+00  3.3538625551566843e-02 -9.8080328035421924e-03 0.0000000000000000e+00  2.9085597684488380e-02 -9.1087651185880227e-03 0.0000000000000000e+00  2.4400324734436825e-02 -8.5580764071967307e-03 0.0000000000000000e+00  1.9498858286064968e-02 -8.0578235191343592e-03 0.0000000000000000e+00  1.4482385919425305e-02 -7.7134055744243210e-03 0.0000000000000000e+00  9.3585250631211085e-03 -7.4684100273714176e-03 0.0000000000000000e+00  4.1780552010158975e-03 -7.2971908322775345e-03 0.0000000000000000e+00  -1.0044673870005137e-03 -7.2123272675099015e-03 0.0000000000000000e+00  -6.1709354075282575e-03 -7.1876215101733722e-03 0.0000000000000000e+00  -1.1302706076030060e-02 -1.2293671087915610e-02 0.0000000000000000e+00  -1.1327197073210879e-02 -1.7364642229755454e-02 0.0000000000000000e+00  -1.1412600743006551e-02 -2.2423497508449356e-02 0.0000000000000000e+00  -1.1576864060429780e-02 -2.7508130297790978e-02 0.0000000000000000e+00  -1.1788068171424871e-02 -3.2683849920826430e-02 0.0000000000000000e+00  -1.2042861714618264e-02 -3.7980428568489301e-02 0.0000000000000000e+00  -1.2332985108852831e-02 -4.3454281154666666e-02 0.0000000000000000e+00  -1.2542303875559453e-02 -4.9114075614708534e-02 0.0000000000000000e+00  -1.2660552811788741e-02 -5.4999840993869190e-02 0.0000000000000000e+00  -1.2613434194096699e-02 -6.1078641158841811e-02 0.0000000000000000e+00  -1.2278608749853778e-02 -6.7300688876176365e-02 0.0000000000000000e+00  -1.1603428797828001e-02 -7.3632985849901814e-02 0.0000000000000000e+00  -1.0344126550501338e-02 -7.9901010026088251e-02 0.0000000000000000e+00  -8.5608343839113765e-03 -8.6242517275876951e-02 0.0000000000000000e+00  -5.7982035901730398e-03 -9.2407191919457329e-02 0.0000000000000000e+00  0.0000000000000000e+00 -1.0000000000000001e-01 0.0000000000000000e+00  0.0000000000000000e+00 -1.0000000000000001e-01 0.0000000000000000e+00  0.0000000000000000e+00 -1.0000000000000001e-01 0.0000000000000000e+00  0.0000000000000000e+00 -1.0000000000000001e-01 0.0000000000000000e+00  0.0000000000000000e+00 -1.0000000000000001e-01 0.0000000000000000e+00  0.0000000000000000e+00 -1.0000000000000001e-01 0.0000000000000000e+00  0.0000000000000000e+00 -1.0000000000000001e-01 0.0000000000000000e+00  0.0000000000000000e+00 -1.0000000000000001e-01 0.0000000000000000e+00  0.0000000000000000e+00 -1.0000000000000001e-01 0.0000000000000000e+00  0.0000000000000000e+00 -1.0000000000000001e-01 0.0000000000000000e+00  5.1622250682159436e-03 -9.1733091107317602e-02 0.0000000000000000e+00  8.3222552136090686e-03 -8.5131952051422863e-02 0.0000000000000000e+00  1.0277157285316401e-02 -7.8571239236385829e-02 0.0000000000000000e+00  1.1343245422582689e-02 -7.2022810240217491e-02 0.0000000000000000e+00  1.1974741011097290e-02 -6.5598076970728350e-02 0.0000000000000000e+00  1.2243739078794049e-02 -5.9297921112646056e-02 0.0000000000000000e+00  1.2284364157889993e-02 -5.3181142626109956e-02 0.0000000000000000e+00  1.2188339437232860e-02 -4.7293553079519081e-02 0.0000000000000000e+00  1.1982284715137310e-02 -4.1576547157423469e-02 0.0000000000000000e+00  1.1775107678773282e-02 -3.6052309849606279e-02 0.0000000000000000e+00  1.1591917786413237e-02 -3.0659500054358520e-02 0.0000000000000000e+00  1.1442292032601121e-02 -2.5363457531542118e-02 0.0000000000000000e+00  1.1361573565586926e-02 -2.0103421405374095e-02 0.0000000000000000e+00  1.1334166033864113e-02 -1.4843886874089093e-02 0.0000000000000000e+00  -2.6360165622812538e-03 -2.1150526199288314e-03 0.0000000000000000e+00  1.8022292815804194e-02 -3.4237317161292309e-02 0.0000000000000000e+00  -1.8026609523785504e-02 -3.7697223071833035e-02 0.0000000000000000e+00  2.3342255135903045e-03 -1.8226149919015355e-03 0.0000000000000000e+00  -1.2335895025517177e-03 5.3938337518017626e-04 0.0000000000000000e+00  9.4581991682208492e-03 -5.6874182256269813e-02 0.0000000000000000e+00  3.5425921223296047e-02 -2.6354690402142018e-02 0.0000000000000000e+00  -8.8827049825301110e-03 -6.0421334834723619e-03 0.0000000000000000e+00  -3.6794003663821732e-02 -2.9203526750030011e-02 0.0000000000000000e+00  8.3411648289066880e-03 -5.4460027144752621e-03 0.0000000000000000e+00  1.1833737517532564e-03 5.5734409165801048e-04 0.0000000000000000e+00  -9.9770647266347063e-03 -6.1307489478564910e-02 0.0000000000000000e+00  -1.8345754056299957e-02 -1.0309692448059507e-02 0.0000000000000000e+00  4.6945018370319301e-02 -2.1961730674413222e-02 0.0000000000000000e+00  -9.1175562677816332e-04 6.7138720166373201e-04 0.0000000000000000e+00  4.8827839652867532e-03 -7.7506862203036375e-02 0.0000000000000000e+00  -4.8904580929280475e-02 -2.4427761926905031e-02 0.0000000000000000e+00  1.7261734480469387e-02 -9.3508735988839190e-03 0.0000000000000000e+00  -5.3099293933606424e-03 -8.2341278790297914e-02 0.0000000000000000e+00  8.7330874769213460e-04 6.4805532897275271e-04 0.0000000000000000e+00  5.3269337631713957e-03 -2.3399550110408944e-02 0.0000000000000000e+00  -1.0152058118026205e-03 -2.5774716859273553e-03 0.0000000000000000e+00  -5.8444591770168263e-03 -2.6369461746213654e-02 0.0000000000000000e+00  9.4315232438155379e-04 -2.343