<?xml version="1.0"?>
<VTKFile type="UnstructuredGrid"  version="0.1"  >
<UnstructuredGrid>
<Piece  NumberOfPoints="1306" NumberOfCells="2356">
<Points>
<DataArray  type="Float64"  NumberOfComponents="3"  format="ascii">-0.75 0 0  0.75 0 0  -1 -1 0  1 -1 0  1 1 0  -1 1 0  -0.7483941924290298 -0.04905234692143039 0  -0.7435836460305191 -0.09789464416381397 0  -0.7355889603026755 -0.146317741510826 0  -0.724444369717141 -0.1941142838256225 0  -0.7101975971217644 -0.241079598976089 0  -0.692909649384 -0.2870125742725258 0  -0.6726545561501824 -0.3317165176628999 0  -0.6495190528391268 -0.3749999999986182 0  -0.623602209227858 -0.4166776747632813 0  -0.595015005219523 -0.4565710717551114 0  -0.5638798556104562 -0.494509361323657 0  -0.5303300858913566 -0.5303300858884648 0  -0.4945093613266868 -0.5638798556077991 0  -0.4565710717583048 -0.5950150052170725 0  -0.4166776747666322 -0.623602209225619 0  -0.3750000000020135 -0.6495190528371666 0  -0.3317165176664049 -0.672654556148454 0  -0.2870125742761139 -0.6929096493825138 0  -0.2410795989798009 -0.7101975971205046 0  -0.1941142838294851 -0.724444369716106 0  -0.146317741514802 -0.7355889603018846 0  -0.09789464416785587 -0.7435836460299869 0  -0.04905234692555992 -0.7483941924287592 0  -3.00247756090001e-12 -0.75 0  0.04905234691972851 -0.7483941924291413 0  0.0978946441623841 -0.7435836460307073 0  0.1463177415096285 -0.7355889603029137 0  0.1941142838246269 -0.7244443697174078 0  0.2410795989753896 -0.7101975971220019 0  0.2870125742720389 -0.6929096493842017 0  0.3317165176626459 -0.6726545561503078 0  0.3749999999985991 -0.6495190528391378 0  0.41667767476353 -0.6236022092276918 0  0.4565710717555842 -0.5950150052191601 0  0.4945093613242373 -0.5638798556099472 0  0.5303300858892341 -0.5303300858905872 0  0.5638798556087157 -0.4945093613256417 0  0.5950150052180718 -0.4565710717570025 0  0.6236022092267106 -0.4166776747649985 0  0.6495190528382387 -0.3750000000001563 0  0.672654556149483 -0.3317165176643182 0  0.6929096493834934 -0.2870125742737488 0  0.7101975971214048 -0.2410795989771483 0  0.7244443697169077 -0.1941142838264931 0  0.7355889603025434 -0.1463177415114902 0  0.7435836460304667 -0.09789464416421147 0  0.7483941924290169 -0.04905234692162523 0  0.7483941924290298 0.04905234692143039 0  0.7435836460305191 0.09789464416381397 0  0.7355889603026755 0.146317741510826 0  0.724444369717141 0.1941142838256225 0  0.7101975971217644 0.241079598976089 0  0.692909649384 0.2870125742725258 0  0.6726545561501824 0.3317165176628999 0  0.6495190528391268 0.3749999999986182 0  0.623602209227858 0.4166776747632813 0  0.595015005219523 0.4565710717551114 0  0.5638798556104562 0.494509361323657 0  0.5303300858913566 0.5303300858884648 0  0.4945093613266868 0.5638798556077991 0  0.4565710717583048 0.5950150052170725 0  0.4166776747666322 0.623602209225619 0  0.3750000000020135 0.6495190528371666 0  0.3317165176664049 0.672654556148454 0  0.2870125742761139 0.6929096493825138 0  0.2410795989798009 0.7101975971205046 0  0.1941142838294851 0.724444369716106 0  0.146317741514802 0.7355889603018846 0  0.09789464416785587 0.7435836460299869 0  0.04905234692555992 0.7483941924287592 0  3.00247756090001e-12 0.75 0  -0.04905234691972851 0.7483941924291413 0  -0.0978946441623841 0.7435836460307073 0  -0.1463177415096285 0.7355889603029137 0  -0.1941142838246269 0.7244443697174078 0  -0.2410795989753896 0.7101975971220019 0  -0.2870125742720389 0.6929096493842017 0  -0.3317165176626459 0.6726545561503078 0  -0.3749999999985991 0.6495190528391378 0  -0.41667767476353 0.6236022092276918 0  -0.4565710717555842 0.5950150052191601 0  -0.4945093613242373 0.5638798556099472 0  -0.5303300858892341 0.5303300858905872 0  -0.5638798556087157 0.4945093613256417 0  -0.5950150052180718 0.4565710717570025 0  -0.6236022092267106 0.4166776747649985 0  -0.6495190528382387 0.3750000000001563 0  -0.672654556149483 0.3317165176643182 0  -0.6929096493834934 0.2870125742737488 0  -0.7101975971214048 0.2410795989771483 0  -0.7244443697169077 0.1941142838264931 0  -0.7355889603025434 0.1463177415114902 0  -0.7435836460304667 0.09789464416421147 0  -0.7483941924290169 0.04905234692162523 0  -1 0.9500000000001387 0  -1 0.9000000000002774 0  -1 0.8500000000004161 0  -1 0.8000000000005548 0  -1 0.7500000000006934 0  -1 0.7000000000008322 0  -1 0.6500000000009709 0  -1 0.6000000000011096 0  -1 0.5500000000012482 0  -1 0.500000000001387 0  -1 0.4500000000015257 0  -1 0.4000000000016644 0  -1 0.3500000000018031 0  -1 0.3000000000019418 0  -1 0.2500000000020806 0  -1 0.2000000000022192 0  -1 0.1500000000023578 0  -1 0.1000000000024964 0  -1 0.05000000000263527 0  -1 2.752242878045763e-12 0  -1 -0.04999999999736482 0  -1 -0.09999999999750342 0  -1 -0.149999999997642 0  -1 -0.1999999999977808 0  -1 -0.2499999999979194 0  -1 -0.2999999999980583 0  -1 -0.3499999999981969 0  -1 -0.3999999999983355 0  -1 -0.4499999999984743 0  -1 -0.4999999999986129 0  -1 -0.5499999999987515 0  -1 -0.5999999999988903 0  -1 -0.6499999999990291 0  -1 -0.699999999999168 0  -1 -0.7499999999993066 0  -1 -0.7999999999994454 0  -1 -0.849999999999584 0  -1 -0.8999999999997226 0  -1 -0.9499999999998614 0  -0.9500000000001387 -1 0  -0.9000000000002774 -1 0  -0.8500000000004161 -1 0  -0.8000000000005548 -1 0  -0.7500000000006934 -1 0  -0.7000000000008322 -1 0  -0.6500000000009709 -1 0  -0.6000000000011096 -1 0  -0.5500000000012482 -1 0  -0.500000000001387 -1 0  -0.4500000000015257 -1 0  -0.4000000000016644 -1 0  -0.3500000000018031 -1 0  -0.3000000000019418 -1 0  -0.2500000000020806 -1 0  -0.2000000000022192 -1 0  -0.1500000000023578 -1 0  -0.1000000000024964 -1 0  -0.05000000000263527 -1 0  -2.752242878045763e-12 -1 0  0.04999999999736482 -1 0  0.09999999999750342 -1 0  0.149999999997642 -1 0  0.1999999999977808 -1 0  0.2499999999979194 -1 0  0.2999999999980583 -1 0  0.3499999999981969 -1 0  0.3999999999983355 -1 0  0.4499999999984743 -1 0  0.4999999999986129 -1 0  0.5499999999987515 -1 0  0.5999999999988903 -1 0  0.6499999999990291 -1 0  0.699999999999168 -1 0  0.7499999999993066 -1 0  0.7999999999994454 -1 0  0.849999999999584 -1 0  0.8999999999997226 -1 0  0.9499999999998614 -1 0  1 -0.9500000000001387 0  1 -0.9000000000002774 0  1 -0.8500000000004161 0  1 -0.8000000000005548 0  1 -0.7500000000006934 0  1 -0.7000000000008322 0  1 -0.6500000000009709 0  1 -0.6000000000011096 0  1 -0.5500000000012482 0  1 -0.500000000001387 0  1 -0.4500000000015257 0  1 -0.4000000000016644 0  1 -0.3500000000018031 0  1 -0.3000000000019418 0  1 -0.2500000000020806 0  1 -0.2000000000022192 0  1 -0.1500000000023578 0  1 -0.1000000000024964 0  1 -0.05000000000263527 0  1 -2.752242878045763e-12 0  1 0.04999999999736482 0  1 0.09999999999750342 0  1 0.149999999997642 0  1 0.1999999999977808 0  1 0.2499999999979194 0  1 0.2999999999980583 0  1 0.3499999999981969 0  1 0.3999999999983355 0  1 0.4499999999984743 0  1 0.4999999999986129 0  1 0.5499999999987515 0  1 0.5999999999988903 0  1 0.6499999999990291 0  1 0.699999999999168 0  1 0.7499999999993066 0  1 0.7999999999994454 0  1 0.849999999999584 0  1 0.8999999999997226 0  1 0.9499999999998614 0  0.9500000000001387 1 0  0.9000000000002774 1 0  0.8500000000004161 1 0  0.8000000000005548 1 0  0.7500000000006934 1 0  0.7000000000008322 1 0  0.6500000000009709 1 0  0.6000000000011096 1 0  0.5500000000012482 1 0  0.500000000001387 1 0  0.4500000000015257 1 0  0.4000000000016644 1 0  0.3500000000018031 1 0  0.3000000000019418 1 0  0.2500000000020806 1 0  0.2000000000022192 1 0  0.1500000000023578 1 0  0.1000000000024964 1 0  0.05000000000263527 1 0  2.752242878045763e-12 1 0  -0.04999999999736482 1 0  -0.09999999999750342 1 0  -0.149999999997642 1 0  -0.1999999999977808 1 0  -0.2499999999979194 1 0  -0.2999999999980583 1 0  -0.3499999999981969 1 0  -0.3999999999983355 1 0  -0.4499999999984743 1 0  -0.4999999999986129 1 0  -0.5499999999987515 1 0  -0.5999999999988903 1 0  -0.6499999999990291 1 0  -0.699999999999168 1 0  -0.7499999999993066 1 0  -0.7999999999994454 1 0  -0.849999999999584 1 0  -0.8999999999997226 1 0  -0.9499999999998614 1 0  -0.7260115133073834 -0.7140490773999831 0  0.7260115133073831 0.714049077399983 0  -0.7259989903580564 0.7215170646134543 0  0.7259989903580564 -0.7215170646134541 0  -0.5300853173097423 -0.792282260021314 0  0.5300853173097421 0.792282260021314 0  0.794797039310626 0.5313449954119724 0  -0.7947970393106262 -0.5313449954119722 0  -0.7947970393108137 0.5313449954117953 0  0.7947970393108138 -0.5313449954117948 0  0.5300853173099099 -0.7922822600211799 0  -0.5300853173099103 0.79228226002118 0  -0.8357139439634808 -0.3708726251916453 0  0.8357139439634808 0.3708726251916455 0  -0.3708726251918615 -0.83571394396348 0  0.370872625191861 0.8357139439634801 0  -0.8357139439633258 0.3708726251916861 0  0.835713943963326 -0.3708726251916857 0  -0.3708726251916093 0.8357139439634489 0  0.3708726251916093 -0.8357139439634491 0  0.8392516870008371 0.839251687000897 0  -0.8392516870008372 -0.839251687000897 0  -0.8392516870008968 0.8392516870008369 0  0.8392516870008971 -0.8392516870008373 0  -0.6626193941577174 -0.8557964915952936 0  0.6626193941577173 0.8557964915952936 0  0.8546710446522048 0.6596143676303845 0  -0.854671044652205 -0.6596143676303846 0  -0.8557964915952931 0.662619394157717 0  0.8557964915952931 -0.6626193941577159 0  0.662697867482178 -0.8500832691531113 0  -0.6626978674821781 0.8500832691531111 0  -0.6675773651915434 -0.5944904026702718 0  0.6675773651915433 0.5944904026702719 0  0.6675773651917545 -0.5944904026700938 0  -0.6675773651917546 0.5944904026700941 0  -0.234538632926149 -0.8601900702283434 0  0.2345386329261488 0.8601900702283434 0  -0.8601900702277013 0.2345386329248857 0  0.8601900702277013 -0.2345386329248854 0  -0.8601900702274715 -0.2345386329250451 0  0.8601900702274712 0.2345386329250446 0  -0.2345386329245444 0.8601900702272047 0  0.234538632924544 -0.8601900702272047 0  -0.8702832009676685 0.08641113760258684 0  0.8702832009676686 -0.0864111376025866 0 
[...]
<PointData  Scalars="f_32"> 
<DataArray  type="Float64"  Name="f_32"  format="ascii">5.8560590363832390e-02  5.7799030466509471e-02  7.1364389234011614e-07  -3.1926420943851508e-07  1.6299405916549083e-02  2.1144522509317410e-02  5.3897930085199712e-02  4.8801774852644052e-02  4.3451476997803037e-02  3.8204351647332081e-02  3.3035788731287853e-02  2.8260540303553610e-02  2.3891795531152400e-02  2.0048933777188874e-02  1.6557631539217837e-02  1.3626708687516195e-02  1.1059065318811704e-02  8.9487526454335060e-03  7.1918608287152783e-03  5.6362206105639691e-03  4.3964706763103493e-03  3.4521918403030293e-03  2.6497827522568174e-03  2.0152821573893361e-03  1.5014050600098826e-03  1.1047564679928959e-03  7.8952079223897911e-04  5.1655769277849154e-04  2.6913218268437701e-04  4.1066915185960431e-05  2.2275337040152441e-04  4.6138638678252988e-04  7.2905901143008735e-04  1.0330098569195797e-03  1.4109443660134393e-03  1.9004587241672271e-03  2.5067599356267526e-03  3.2764891561865655e-03  4.1847574430901868e-03  5.3814468017720643e-03  6.8884750584010303e-03  8.5936713659489905e-03  1.0646704173346684e-02  1.3153865920230434e-02  1.6018949143207870e-02  1.9446909946162837e-02  2.3224058658258839e-02  2.7528882553822825e-02  3.2251852136546730e-02  3.7381440002253685e-02  4.2622433908837618e-02  4.7915156134009609e-02  5.3056158906193050e-02  6.1896686804245829e-02  6.5430725678968737e-02  6.8107558444354024e-02  6.9951387890234654e-02  7.1368843396124926e-02  7.2351570372941834e-02  7.2952831075958791e-02  7.3457091421081394e-02  7.4601547270681204e-02  7.5917880343361388e-02  7.8067334737107544e-02  8.0853489640103013e-02  8.4547282975988236e-02  8.9165513051241707e-02  9.4536999430896773e-02  1.0061089372174675e-01  1.0736969817286939e-01  1.1457729045075128e-01  1.2185241971859685e-01  1.2897109023972600e-01  1.3542687737747597e-01  1.4065005762570668e-01  1.4417911775141579e-01  1.4583981854354147e-01  1.4521570762150837e-01  1.4267355552794000e-01  1.3804592510835303e-01  1.3213005975992617e-01  1.2528249805502364e-01  1.1806543026240114e-01  1.1072137339516076e-01  1.0373112609333621e-01  9.7334192318185506e-02  9.1612454880225014e-02  8.6621226746863872e-02  8.2552059523970447e-02  7.9418153174270867e-02  7.6965688884107403e-02  7.5403661785967260e-02  7.4075735267172801e-02  7.3465844393221652e-02  7.2814556767540714e-02  7.1829783163168293e-02  7.0436284678161085e-02  6.8689866907932426e-02  6.6089376703417108e-02  6.2586469822909871e-02  1.4162204068951944e-02  7.5104456256086596e-03  4.4474920885253866e-03  9.0907619565778544e-03  1.5723045632204523e-02  2.2735642439470065e-02  2.9541261374284433e-02  3.6047922393385314e-02  4.2393840513849181e-02  4.8284319590477721e-02  5.3631881430980431e-02  5.8374420198836804e-02  6.2460408344890472e-02  6.5667568372464027e-02  6.8001480426089514e-02  6.9459752358983731e-02  6.9541350896508841e-02  6.9043120666535202e-02  6.7296553431328024e-02  6.4693113096134972e-02  6.1323898313763038e-02  5.7366830496252588e-02  5.2879660251534510e-02  4.8284728449854160e-02  4.3654466173687692e-02  3.9055030272135471e-02  3.4573185722991132e-02  3.0418549203733082e-02  2.6529553299319903e-02  2.2982738965338680e-02  1.9676304397090432e-02  1.6706565077264049e-02  1.4047002154039362e-02  1.1539825748567002e-02  9.2969594597298102e-03  7.2523401284864146e-03  5.3201636464991998e-03  3.5127148868105856e-03  1.6208530635733551e-03  5.0108381707770713e-07  -1.5570373552548349e-07  -2.0789422776279427e-07  -2.0059501748993141e-07  1.2185731468191015e-06  -2.2935008024185748e-06  8.9299033364566186e-06  1.2000876418466614e-05  -1.7389971824131959e-06  2.6326192857021606e-07  5.7947986965457991e-07  -2.7219228097279586e-07  3.4104577353432201e-07  -7.3236895535206912e-08  -1.4550551259639787e-07  4.5113615867206309e-07  -2.2241934008550937e-07  3.7379396225325802e-07  -3.9357956766413182e-07  -5.4210831869594987e-07  -3.9495424411752721e-07  2.9562589705853183e-07  -1.8269639648235061e-07  4.2470663226536198e-07  -1.3620304527004358e-07  -7.0653915561091831e-08  3.2335071138887805e-07  -2.5856431683825858e-07  5.5595059157388385e-07  1.4598581179074872e-07  -1.6955342153432902e-06  1.0761631635178391e-05  8.2998325453058275e-06  -2.3273612570920635e-06  4.6774904551794706e-07  -3.3538836057295105e-07  -1.6547782818262415e-07  -2.2632452526326372e-07  3.9570177465933373e-07  -3.5207624222969118e-07  2.6296963884693326e-03  4.5752572563935211e-03  6.5669874420404189e-03  8.6002268340848956e-03  1.0814583462561074e-02  1.3281222303993548e-02  1.5886885822182301e-02  1.8797220811704814e-02  2.2043797278741856e-02  2.5532729106542633e-02  2.9368421462064288e-02  3.3479208930991260e-02  3.7927683337449516e-02  4.2510976567069092e-02  4.7148216492127970e-02  5.1780482083205973e-02  5.6317416347567817e-02  6.0368172471405725e-02  6.3831566416628169e-02  6.6593043208965183e-02  6.8546207321174793e-02  6.9266986695669192e-02  6.9427480224539692e-02  6.8241037833078555e-02  6.6191447701366479e-02  6.3278581144104062e-02  5.9491626409166762e-02  5.5054044988112241e-02  5.0003064941350907e-02  4.4406326843737250e-02  3.8357960648449652e-02  3.2104422453302271e-02  2.5530590115467579e-02  1.8733284659330163e-02  1.2137085071978230e-02  5.5083361400579374e-03  3.9899468637133693e-03  9.5544649503397951e-03  1.8960774109950517e-02  2.3430856785998062e-02  2.8826525835536417e-02  3.4624220345676401e-02  4.0858431393942074e-02  4.7482327584171022e-02  5.4365903278088767e-02  6.1630373004185911e-02  6.9304333755153796e-02  7.7271300554172834e-02  8.5450163510574328e-02  9.4014143447794629e-02  1.0253351281626763e-01  1.1128158554895054e-01  1.1983065147668072e-01  1.2846779996472080e-01  1.3571461841644095e-01  1.4179052130417652e-01  1.4526314555824144e-01  1.4689348310022182e-01  1.4645964666135081e-01  1.4416714428311203e-01  1.3925957988500265e-01  1.3348082256272947e-01  1.2540266024870445e-01  1.1654685631948487e-01  1.0775608663106963e-01  9.9187883869273186e-02  9.0528929890037690e-02  8.2215173716015930e-02  7.4084916297970177e-02  6.6244709897214607e-02  5.8817986310245297e-02  5.1791947655951881e-02  4.5072001746466618e-02  3.8812345775158422e-02  3.3054676544788136e-02  2.7820009836146305e-02  2.3650740180319128e-02  3.3267733070165874e-03  4.5795667366424653e-02  4.6049939203264639e-02  2.7796267111844372e-03  1.5198956790092428e-03  6.9899108283471817e-02  5.5169495787407118e-02  1.1820804165588976e-02  5.4437300019820396e-02  1.1138150014898028e-02  1.4596498560386451e-03  7.3135221819801213e-02  2.4069107260527304e-02  6.5956028930450050e-02  1.2179342445333052e-03  9.7156370586144847e-02  6.5474162236366804e-02  2.3142955814839609e-02  1.0166505868997425e-01  1.1718206264578501e-03  2.5824019995100891e-02  2.4673601846300188e-03  2.6935526823257436e-02  2.1551872588355687e-03  4.3265363115269024e-04  4.9050726087690691e-02  3.8714156478698684e-02  8.2169681614525474e-03  3.7119218308161089e-02  7.5301278679768971e-03  3.4230716656736930e-04  5.1837083677338608e-02  6.4375068033449461e-03  6.0113909275603422e-02  6.0519438166886539e-03  6.0632631455105647e-02  7.4943864782659288e-04  1.2224652451067340e-01  7.0530068099180290e-02  3.6938601916578197e-02  3.8005473918844061e-02  7.0458494408888947e-02  1.2680008727179298e-01  7.1101764413925060e-04  6.7805805453987122e-02  5.2980742837189981e-02  5.4105209071746672e-02  6.7137378839823833e-02  2.7822770701502799e-04  1.4329886873682249e-01  1.4546182509834213e-01  2.4740396091616477e-04  6.8523097426037197e-02  3.8559507023895752e-03  3.6774451175648252e-03  7.0443279889970442e-02  5.6936923285410570e-04  7.9574229559106702e-02  5.7275470012088159e-02  1.9444880566273810e-02  5.6176686970889407e-02  1.8568903472132855e-02  5.5500084411605011e-04  8.3948057250067404e-02  2.4398875538959685e-03  8.7041068265863122e-02  1.6252503945175228e-02  6.5558243513454351e-02  6.5374120711038000e-02  1.5553632142865289e-02  2.3458010907844141e-03  9.0544608821537212e-02  5.7225517766517756e-02  1.7381838611275492e-03  1.6088747037160264e-03  5.9608709413470490e-02  7.3017742791623851e-04  3.6468189689579607e-02  5.6712205774062715e-03  2.3912750917993029e-02  6.1543526341840656e-03  2.5158350820370812e-02  5.8675109311011840e-04  3.9058786328776109e-02  6.4631677151184924e-02  1.7232818437641040e-04  4.5220649328340808e-02  1.3757749298096648e-02  1.4534514590099799e-02  4.6791202324480176e-02  6.8613867627675490e-02  1.7651659369014337e-04  7.0971936783051966e-03  4.9086169761380763e-02  4.8662873279477464e-02  6.1834277733164283e-03  1.0936283152826253e-02  6.5502980951141251e-02  1.0430376325009840e-02  6.5773534863468555e-02  1.4017560772256782e-03  1.5643707257460650e-02  1.8711309112162393e-02  1.1100743635391174e-03  2.9471426230332005e-02  7.0014071096924257e-02  1.3935144908900322e-03  1.1125286044348021e-01  6.9983343932712896e-02  2.8533146920294801e-02  1.1561119681670343e-01  1.3262547821338831e-03  3.9212250447460007e-04  1.0790233684372870e-01  6.6992975012700337e-02  3.1694824621794696e-02  6.7427959920978164e-02  3.2761274544211322e-02  1.1297531548597997e-01  3.7732001183247087e-04  1.4827889989454215e-01  6.3007578493339266e-05  6.3087312397058462e-02  6.1811611253561861e-02  3.7386289295814321e-02  1.8498895888930899e-03  3.4066760973328308e-02  3.5115876429047555e-03  4.3159794821347611e-03  3.5655585368241607e-02  4.0406521581965657e-02  1.3884992239376435e-03  1.3832014680815730e-01  2.6875666162131480e-04  7.0077780061510789e-02  4.7788508638424793e-02  7.0415397128442220e-02  4.6687046924655119e-02  2.8645423885084720e-04  1.3448777405247397e-01  5.9254269022672185e-04  1.3889167590662160e-01  6.9590434642201923e-02  4.5645509744954231e-02  4.4042895246364434e-02  7.0160672428767917e-02  6.6004305034849731e-04  1.3484987593547754e-01  3.6165424386912955e-03  8.3780150291083419e-02  8.1115947768388569e-02  3.7669708091451208e-03  3.6141884756388416e-03  5.6871725976412150e-02  3.3334060522799756e-03  5.8008591880697805e-02  6.2673951245459719e-03  7.0012228262562856e-02  5.9886031012011667e-03  7.1356338766522295e-02  9.2713987709935067e-02  3.2935656981094305e-04  6.0997084299960029e-02  2.5140952408674058e-02  2.6131878057742988e-02  6.1905339713165870e-02  3.2037171959145718e-04  9.7599286423499784e-02  6.2595799818037631e-02  5.8609733726237720e-02  1.4729267426297077e-01  8.5888960717346390e-05  2.7080488818051869e-02  6.5498100406254100e-04  3.7401087386273253e-03  1.6035200259546765e-02  1.5919187543246963e-02  4.3319990264896486e-03  5.7821031251576675e-04  3.0066271927198424e-02  1.0075781649846155e-01  2.1364572122797515e-03  6.9138817638811439e-02  2.2407525411646475e-02  6.9109310540120997e-02  2.1617108022264395e-02  2.0410228479626731e-03  1.0464358431708129e-01  1.4046388151536496e-03  8.4015301429123737e-02  1.7866676125941377e-02  6.1304862407276582e-02  6.0612417505326567e-02  1.7048896359630878e-02  1.3566251819109706e-03  8.8043725274886270e-02  1.6755611206071232e-04  4.7875328328514231e-02  9.4918315374847781e-03  2.9916329135308475e-02  3.2011680780298334e-02  1.0210356290814343e-02  1.3072370403129481e-04  5.1583239909284762e-02  5.9429738732138117e-02  7.8126339240711616e-04  1.0080864102260789e-02  4.7021571080934417e-02  4.5962126421604292e-02  9.4236054850655396e-03  6.2665954784735911e-02  7.3296105720063840e-04  8.7453491156412183e-03  5.6985471318710901e-02  5.6813252834986165e-02  8.2033258498519050e-03  1.2455949029079570e-01  1.0787999529284268e-03  3.6996866646488165e-02  7.0824030782647110e-02  3.6027203401260401e-02  7.1089650324566239e-02  1.2854207376459301e-01  1.0149234081977619e-03  4.0172088529618295e-02  6.9742973266915864e-02  2.3809405479729566e-04  1.2246921542218245e-01  2.2724536192761274e-04  1.2748409081743106e-01  4.1293847013558579e-02  6.9788077051096895e-02  4.7110069288503240e-02  1.3221193651940133e-03  4.9140607733695711e-03  4.0696189147512662e-02  8.9415247327144943e-03  6.8548313484397425e-02  8.5491487845616009e-03  6.9338818894496959e-02  2.6015221351730197e-03  7.1815581280122678e-02  7.4525838207917153e-02  2.4942661539315240e-03  5.6244816465358199e-02  6.3857349672102659e-02  1.4692309158298758e-01  1.8373664645152013e-04  1.4549651147555978e-01  8.1311882151946700e-05  5.8312863702907468e-02  6.6478003014634302e-02  1.4702019211734921e-01  7.3319365609201368e-05  6.7204379358674890e-02  5.7316754045542193e-02  5.1804862042528002e-02  6.6494521934122947e-02  3.6315490488794363e-04  1.4334526745590598e-01  1.3148063122083917e-04  7.1680011009867525e-02  4.8374770400119185e-02  1.7342255979092568e-02  4.9954028064788845e-02  1.8195332640037226e-02  7.6107837719746579e-02  1.3044784354834097e-04  7.6988292543391471e-02  4.7360319194401351e-03  4.5439267565951756e-03  7.9142875433212939e-02  9.9059612784882360e-04  5.0115791498373197e-02  4.1707476812991258e-02  5.1837367970009370e-03  5.2398189771760417e-02  1.4356566624689392e-02  7.0618980045301205e-02  6.9725252368195499e-04  6.7524562999335608e-04  7.4477539839401322e-02  5.1226531640168743e-02  1.3587597595662604e-02  1.5440882274534263e-02  6.8308159513857172e-02  1.4833228382039107e-02  6.8489831015179067e-02  1.3056271341271519e-02  6.1623684068314949e-02  1.2400813019738246e-02  6.1297997861370912e-02  6.9627389108601598e-02  3.2456687486861792e-02  1.1799857067410419e-01  9.1236840292520404e-04  9.5689193842063739e-04  1.1330092065142518e-01  3.1434904817321412e-02  6.9499732446935261e-02  1.2129576012672472e-02  3.5325771710943789e-02  5.5377142421353456e-02  3.6104410511683293e-05  1.2875261538032505e-02  3.7393702246431994e-02  2.7063791090627018e-05  5.9367169193213533e-02  4.5864891448467006e-03  5.0652095753443913e-02  4.2194734958611131e-03  4.9893220519392628e-02  3.2377525619999002e-03  9.2964150289001055e-02  3.3785869769794741e-03  8.9866944981271901e-02  1.7005167686439892e-04  8.4406813307906003e-02  5.5969117245868026e-02  2.2496856415905171e-02  5.7193943217564727e-02  2.3445502364861082e-02  1.6926085807371765e-04  8.9191466086515361e-02  6.4537068019755534e-02  4.7319261124822345e-03  6.5859272535539956e-02  4.4826345636807255e-03  1.4370112355552223e-01  4.1236314448888961e-04  5.0418071097055643e-02  6.6990800390837060e-02  4.1099052231163558e-02  8.7125196224276092e-04  5.5450460427649405e-03  3.1727442719963528e-02  9.1370319321489214e-05  1.4364229237433734e-01  6.8718850515871163e-02  5.4151424114937424e-02  6.9239087699694446e-02  5.3085097905380782e-02  1.4092621698987526e-01  9.7360204464115225e-05  2.5047602748962540e-02  8.9874565670109794e-03  4.5867880631310677e-02  -4.3378416333917949e-07  4.2231014939439773e-02  2.8384898254508778e-04  2.2898668501732604e-02  8.3189026202706486e-03  4.3332264199073631e-03  2.6985894982460880e-02  3.4780082756889812e-02  1.1960452346120927e-03  1.8183579268904754e-03  9.2956335462996378e-02  6.6038862095653128e-02  2.0297414459595500e-02  6.5695459559307043e-02  1.9476907864441288e-02  1.7474561173741394e-03  9.6998016918159874e-02  8.7420121380440020e-04  8.8725751248706727e-02  6.1142873972935496e-02  2.0852358767567063e-02  2.1764428317615228e-02  6.1953135505311681e-02  8.4635766724530887e-04  9.3235018198672817e-02  7.8516603771834670e-02  1.9458304732433184e-03  8.1977934715738915e-02  1.8761988227964895e-03  1.9203237431378313e-02  6.9919304858365866e-02  7.0098658334641920e-02  1.8526556044447657e-02  2.5283091726659604e-03  6.4187390177272999e-02  6.6354635981463753e-02  2.3931145672848840e-03  8.0403653260116548e-04  1.3925269404422269e-02  1.7765721184731523e-02  7.1053809893192963e-04  3.2430193031523231e-02  6.5129773997891216e-03  5.8631059048922147e-04  4.3941632760355474e-02  3.2170764113479716e-02  1.5179043877552004e-03  2.6801973156053146e-02  3.6286457971509639e-03  2.2451505355799085e-02  -1.6069075222412324e-07  2.6906030253356292e-03  1.1704148335823044e-02  3.3128065412902159e-03  1.0243345652659601e-02  2.4045423051546799e-07  2.5852759252779849e-02  6.6233745743223228e-03  1.7776775578632716e-02  3.8719113184927211e-04  3.7602632477829204e-02  4.4997467495335190e-04  3.3991438480850775e-02  1.6107487757060428e-02  5.9193903665551864e-03  5.1097865104154962e-02  2.4911430058447933e-03  2.2020763220945965e-03  5.2441187357968579e-02  1.0155962488914894e-01  1.8015628186243961e-04  3.0117880096523563e-02  6.4014335530459293e-02  3.1173884722923935e-02  6.4713939795020922e-02  1.7578202103262413e-04  1.0664315654156761e-01  6.3719817075472945e-02  5.9045486404625057e-02  1.0906934804215934e-04  1.4784164965998028e-01  6.8172106902303825e-02  3.7628116285040793e-02  1.2097857020062715e-01  1.0731682531999057e-07  1.0886911550224267e-07  1.1570064406891968e-01  3.8746370093729346e-02  6.8455461332262296e-02  4.0574540832559514e-02  1.0966630500154482e-02  5.8483010305250632e-02  5.7926592148584094e-05  1.0864960918391819e-04  5.5010916004485211e-02  3.8979194018251770e-02  1.0275662897787653e-02  6.2049363029698559e-02  1.4543596271910709e-03  6.4767214091168757e-02  1.3687098938661734e-03  5.3065640595550800e-02  9.1140526084433605e-04  4.3374693000195125e-04  1.3766541022912063e-01  4.8697705164200189e-02  6.9352997361353780e-02  6.9852850699184649e-02  4.7637466895098853e-02  3.9863250254613378e-04  1.4086080566245798e-01  1.8777850075134186e-03  1.0985010684903503e-01  7.0758545651066290e-02  2.6965074457557470e-02  7.0904373077764038e-02  2.6140224322317284e-02  1.7835364935606147e-03  1.1376940839801182e-01  6.4808820794992643e-03  5.3980089126697633e-02  5.4746763443928766e-02  6.1171563369678853e-03  1.6339136869063567e-03  1.0265334096915008e-01  2.4929585637808685e-02  6.8529217935463835e-02  6.8339800127971348e-02  2.4041853364457012e-02  1.5625528165604744e-03  1.0692427125751468e-01  6.5461566305673263e-02  -2.3896753255433110e-06  4.2287907461223607e-02  1.6042799772517963e-02  1.6868411561991221e-02  4.4197869550988679e-02  6.9874076517077319e-02  -1.8864755677635300e-06  9.0726478941851370e-03  5.2940911933128366e-02  8.4208806076319937e-03  5.2491141418310655e-02  2.9189384241160503e-03  3.8922237928092150e-02  3.9904910077349073e-02  2.4027718044628494e-03  9.9446394218910550e-02  2.7480647533342055e-03  2.6200747039622956e-03  1.0291435253750982e-01  7.4099816615514702e-03  4.3824097520733352e-02  6.8955213008265927e-03  4.2982767557137702e-02  7.1397421159194701e-04  9.9723791114696675e-02  2.6369705159589987e-02  6.5084649431968775e-02  6.5667168402042994e-02  2.7367675405404909e-02  1.0456222536474429e-01  6.8872892584668566e-04  2.2132805518936503e-02  1.5359796478231508e-03  2.2534103424102793e-03  2.0338220669993252e-02  6.4907625867467400e-02  5.7707912826143119e-02  1.4681419329373702e-01  1.4819953705678954e-04  1.2738490700806161e-02  7.0412697668257848e-02  1.3252048147732613e-02  6.9914840291250252e-02  1.3439507178238957e-01  8.5804145313740719e-04  7.0082096701801752e-02  4.0859927006839034e-02  4.0034014723668000e-02  7.0495125058618824e-02  9.1192121482146975e-04  1.3103807873169773e-01  3.2292469556432730e-02  2.7974247347831442e-03  3.3073685440458640e-02  2.3038293754312571e-03  1.4711007179161295e-01  1.0798128871224967e-06  6.2247641813685951e-02  6.4322457273377875e-02  6.8427698467984216e-02  4.6637593809755996e-02  1.3894015951059216e-01  5.8874732877368344e-04  7.9532931257115233e-02  2.8244927341030787e-03  2.7174465918729475e-03  8.2557891490324248e-02  1.1845993219147305e-01  1.4488219309597673e-03  7.1326606500883530e-02  3.1394880842161736e-02  7.1089808548307945e-02  3.2289936303673390e-02  1.3689551839998302e-03  1.2242633957157190e-01  3.5173764749073883e-02  6.9342482916314369e-02  1.2141577230911456e-01  5.1923581158470867e-04  3.6258272988450843e-02  6.9494300538086154e-02  5.4346052409046726e-04  1.1645314713737752e-01  1.4101061121600391e-02  5.8680757362667445e-02  1.3369895300053265e-02  5.8005225800897002e-02  8.6323757503207373e-03  6.3910948669237924e-02  6.4331765850936862e-02  8.1945410750536591e-03  5.3912619811196532e-04  1.3489399812725025e-01  7.04349485573853