<?xml version="1.0"?>
<VTKFile type="UnstructuredGrid"  version="0.1"  >
<UnstructuredGrid>
<Piece  NumberOfPoints="1306" NumberOfCells="2356">
<Points>
<DataArray  type="Float64"  NumberOfComponents="3"  format="ascii">-0.75 0 0  0.75 0 0  -1 -1 0  1 -1 0  1 1 0  -1 1 0  -0.7483941924290298 -0.04905234692143039 0  -0.7435836460305191 -0.09789464416381397 0  -0.7355889603026755 -0.146317741510826 0  -0.724444369717141 -0.1941142838256225 0  -0.7101975971217644 -0.241079598976089 0  -0.692909649384 -0.2870125742725258 0  -0.6726545561501824 -0.3317165176628999 0  -0.6495190528391268 -0.3749999999986182 0  -0.623602209227858 -0.4166776747632813 0  -0.595015005219523 -0.4565710717551114 0  -0.5638798556104562 -0.494509361323657 0  -0.5303300858913566 -0.5303300858884648 0  -0.4945093613266868 -0.5638798556077991 0  -0.4565710717583048 -0.5950150052170725 0  -0.4166776747666322 -0.623602209225619 0  -0.3750000000020135 -0.6495190528371666 0  -0.3317165176664049 -0.672654556148454 0  -0.2870125742761139 -0.6929096493825138 0  -0.2410795989798009 -0.7101975971205046 0  -0.1941142838294851 -0.724444369716106 0  -0.146317741514802 -0.7355889603018846 0  -0.09789464416785587 -0.7435836460299869 0  -0.04905234692555992 -0.7483941924287592 0  -3.00247756090001e-12 -0.75 0  0.04905234691972851 -0.7483941924291413 0  0.0978946441623841 -0.7435836460307073 0  0.1463177415096285 -0.7355889603029137 0  0.1941142838246269 -0.7244443697174078 0  0.2410795989753896 -0.7101975971220019 0  0.2870125742720389 -0.6929096493842017 0  0.3317165176626459 -0.6726545561503078 0  0.3749999999985991 -0.6495190528391378 0  0.41667767476353 -0.6236022092276918 0  0.4565710717555842 -0.5950150052191601 0  0.4945093613242373 -0.5638798556099472 0  0.5303300858892341 -0.5303300858905872 0  0.5638798556087157 -0.4945093613256417 0  0.5950150052180718 -0.4565710717570025 0  0.6236022092267106 -0.4166776747649985 0  0.6495190528382387 -0.3750000000001563 0  0.672654556149483 -0.3317165176643182 0  0.6929096493834934 -0.2870125742737488 0  0.7101975971214048 -0.2410795989771483 0  0.7244443697169077 -0.1941142838264931 0  0.7355889603025434 -0.1463177415114902 0  0.7435836460304667 -0.09789464416421147 0  0.7483941924290169 -0.04905234692162523 0  0.7483941924290298 0.04905234692143039 0  0.7435836460305191 0.09789464416381397 0  0.7355889603026755 0.146317741510826 0  0.724444369717141 0.1941142838256225 0  0.7101975971217644 0.241079598976089 0  0.692909649384 0.2870125742725258 0  0.6726545561501824 0.3317165176628999 0  0.6495190528391268 0.3749999999986182 0  0.623602209227858 0.4166776747632813 0  0.595015005219523 0.4565710717551114 0  0.5638798556104562 0.494509361323657 0  0.5303300858913566 0.5303300858884648 0  0.4945093613266868 0.5638798556077991 0  0.4565710717583048 0.5950150052170725 0  0.4166776747666322 0.623602209225619 0  0.3750000000020135 0.6495190528371666 0  0.3317165176664049 0.672654556148454 0  0.2870125742761139 0.6929096493825138 0  0.2410795989798009 0.7101975971205046 0  0.1941142838294851 0.724444369716106 0  0.146317741514802 0.7355889603018846 0  0.09789464416785587 0.7435836460299869 0  0.04905234692555992 0.7483941924287592 0  3.00247756090001e-12 0.75 0  -0.04905234691972851 0.7483941924291413 0  -0.0978946441623841 0.7435836460307073 0  -0.1463177415096285 0.7355889603029137 0  -0.1941142838246269 0.7244443697174078 0  -0.2410795989753896 0.7101975971220019 0  -0.2870125742720389 0.6929096493842017 0  -0.3317165176626459 0.6726545561503078 0  -0.3749999999985991 0.6495190528391378 0  -0.41667767476353 0.6236022092276918 0  -0.4565710717555842 0.5950150052191601 0  -0.4945093613242373 0.5638798556099472 0  -0.5303300858892341 0.5303300858905872 0  -0.5638798556087157 0.4945093613256417 0  -0.5950150052180718 0.4565710717570025 0  -0.6236022092267106 0.4166776747649985 0  -0.6495190528382387 0.3750000000001563 0  -0.672654556149483 0.3317165176643182 0  -0.6929096493834934 0.2870125742737488 0  -0.7101975971214048 0.2410795989771483 0  -0.7244443697169077 0.1941142838264931 0  -0.7355889603025434 0.1463177415114902 0  -0.7435836460304667 0.09789464416421147 0  -0.7483941924290169 0.04905234692162523 0  -1 0.9500000000001387 0  -1 0.9000000000002774 0  -1 0.8500000000004161 0  -1 0.8000000000005548 0  -1 0.7500000000006934 0  -1 0.7000000000008322 0  -1 0.6500000000009709 0  -1 0.6000000000011096 0  -1 0.5500000000012482 0  -1 0.500000000001387 0  -1 0.4500000000015257 0  -1 0.4000000000016644 0  -1 0.3500000000018031 0  -1 0.3000000000019418 0  -1 0.2500000000020806 0  -1 0.2000000000022192 0  -1 0.1500000000023578 0  -1 0.1000000000024964 0  -1 0.05000000000263527 0  -1 2.752242878045763e-12 0  -1 -0.04999999999736482 0  -1 -0.09999999999750342 0  -1 -0.149999999997642 0  -1 -0.1999999999977808 0  -1 -0.2499999999979194 0  -1 -0.2999999999980583 0  -1 -0.3499999999981969 0  -1 -0.3999999999983355 0  -1 -0.4499999999984743 0  -1 -0.4999999999986129 0  -1 -0.5499999999987515 0  -1 -0.5999999999988903 0  -1 -0.6499999999990291 0  -1 -0.699999999999168 0  -1 -0.7499999999993066 0  -1 -0.7999999999994454 0  -1 -0.849999999999584 0  -1 -0.8999999999997226 0  -1 -0.9499999999998614 0  -0.9500000000001387 -1 0  -0.9000000000002774 -1 0  -0.8500000000004161 -1 0  -0.8000000000005548 -1 0  -0.7500000000006934 -1 0  -0.7000000000008322 -1 0  -0.6500000000009709 -1 0  -0.6000000000011096 -1 0  -0.5500000000012482 -1 0  -0.500000000001387 -1 0  -0.4500000000015257 -1 0  -0.4000000000016644 -1 0  -0.3500000000018031 -1 0  -0.3000000000019418 -1 0  -0.2500000000020806 -1 0  -0.2000000000022192 -1 0  -0.1500000000023578 -1 0  -0.1000000000024964 -1 0  -0.05000000000263527 -1 0  -2.752242878045763e-12 -1 0  0.04999999999736482 -1 0  0.09999999999750342 -1 0  0.149999999997642 -1 0  0.1999999999977808 -1 0  0.2499999999979194 -1 0  0.2999999999980583 -1 0  0.3499999999981969 -1 0  0.3999999999983355 -1 0  0.4499999999984743 -1 0  0.4999999999986129 -1 0  0.5499999999987515 -1 0  0.5999999999988903 -1 0  0.6499999999990291 -1 0  0.699999999999168 -1 0  0.7499999999993066 -1 0  0.7999999999994454 -1 0  0.849999999999584 -1 0  0.8999999999997226 -1 0  0.9499999999998614 -1 0  1 -0.9500000000001387 0  1 -0.9000000000002774 0  1 -0.8500000000004161 0  1 -0.8000000000005548 0  1 -0.7500000000006934 0  1 -0.7000000000008322 0  1 -0.6500000000009709 0  1 -0.6000000000011096 0  1 -0.5500000000012482 0  1 -0.500000000001387 0  1 -0.4500000000015257 0  1 -0.4000000000016644 0  1 -0.3500000000018031 0  1 -0.3000000000019418 0  1 -0.2500000000020806 0  1 -0.2000000000022192 0  1 -0.1500000000023578 0  1 -0.1000000000024964 0  1 -0.05000000000263527 0  1 -2.752242878045763e-12 0  1 0.04999999999736482 0  1 0.09999999999750342 0  1 0.149999999997642 0  1 0.1999999999977808 0  1 0.2499999999979194 0  1 0.2999999999980583 0  1 0.3499999999981969 0  1 0.3999999999983355 0  1 0.4499999999984743 0  1 0.4999999999986129 0  1 0.5499999999987515 0  1 0.5999999999988903 0  1 0.6499999999990291 0  1 0.699999999999168 0  1 0.7499999999993066 0  1 0.7999999999994454 0  1 0.849999999999584 0  1 0.8999999999997226 0  1 0.9499999999998614 0  0.9500000000001387 1 0  0.9000000000002774 1 0  0.8500000000004161 1 0  0.8000000000005548 1 0  0.7500000000006934 1 0  0.7000000000008322 1 0  0.6500000000009709 1 0  0.6000000000011096 1 0  0.5500000000012482 1 0  0.500000000001387 1 0  0.4500000000015257 1 0  0.4000000000016644 1 0  0.3500000000018031 1 0  0.3000000000019418 1 0  0.2500000000020806 1 0  0.2000000000022192 1 0  0.1500000000023578 1 0  0.1000000000024964 1 0  0.05000000000263527 1 0  2.752242878045763e-12 1 0  -0.04999999999736482 1 0  -0.09999999999750342 1 0  -0.149999999997642 1 0  -0.1999999999977808 1 0  -0.2499999999979194 1 0  -0.2999999999980583 1 0  -0.3499999999981969 1 0  -0.3999999999983355 1 0  -0.4499999999984743 1 0  -0.4999999999986129 1 0  -0.5499999999987515 1 0  -0.5999999999988903 1 0  -0.6499999999990291 1 0  -0.699999999999168 1 0  -0.7499999999993066 1 0  -0.7999999999994454 1 0  -0.849999999999584 1 0  -0.8999999999997226 1 0  -0.9499999999998614 1 0  -0.7260115133073834 -0.7140490773999831 0  0.7260115133073831 0.714049077399983 0  -0.7259989903580564 0.7215170646134543 0  0.7259989903580564 -0.7215170646134541 0  -0.5300853173097423 -0.792282260021314 0  0.5300853173097421 0.792282260021314 0  0.794797039310626 0.5313449954119724 0  -0.7947970393106262 -0.5313449954119722 0  -0.7947970393108137 0.5313449954117953 0  0.7947970393108138 -0.5313449954117948 0  0.5300853173099099 -0.7922822600211799 0  -0.5300853173099103 0.79228226002118 0  -0.8357139439634808 -0.3708726251916453 0  0.8357139439634808 0.3708726251916455 0  -0.3708726251918615 -0.83571394396348 0  0.370872625191861 0.8357139439634801 0  -0.8357139439633258 0.3708726251916861 0  0.835713943963326 -0.3708726251916857 0  -0.3708726251916093 0.8357139439634489 0  0.3708726251916093 -0.8357139439634491 0  0.8392516870008371 0.839251687000897 0  -0.8392516870008372 -0.839251687000897 0  -0.8392516870008968 0.8392516870008369 0  0.8392516870008971 -0.8392516870008373 0  -0.6626193941577174 -0.8557964915952936 0  0.6626193941577173 0.8557964915952936 0  0.8546710446522048 0.6596143676303845 0  -0.854671044652205 -0.6596143676303846 0  -0.8557964915952931 0.662619394157717 0  0.8557964915952931 -0.6626193941577159 0  0.662697867482178 -0.8500832691531113 0  -0.6626978674821781 0.8500832691531111 0  -0.6675773651915434 -0.5944904026702718 0  0.6675773651915433 0.5944904026702719 0  0.6675773651917545 -0.5944904026700938 0  -0.6675773651917546 0.5944904026700941 0  -0.234538632926149 -0.8601900702283434 0  0.2345386329261488 0.8601900702283434 0  -0.8601900702277013 0.2345386329248857 0  0.8601900702277013 -0.2345386329248854 0  -0.8601900702274715 -0.2345386329250451 0  0.8601900702274712 0.2345386329250446 0  -0.2345386329245444 0.8601900702272047 0  0.234538632924544 -0.8601900702272047 0  -0.8702832009676685 0.08641113760258684 0  0.8702832009676686 -0.0864111376025866 0 
[...]
<PointData  Scalars="f_70"> 
<DataArray  type="Float64"  Name="f_70"  format="ascii">1.2068673573499693e-01  1.0964551916075879e-01  7.4089174962400944e-02  6.8275957518163163e-02  6.8471871056409363e-04  7.0881619644134141e-04  1.0529926931662163e-01  7.8258034251271105e-02  5.5108253808062738e-02  2.7573845013275880e-02  1.8257265509088919e-02  2.1076657368183878e-02  2.9604093287605382e-02  4.6060568287025212e-02  5.3982110554404272e-02  5.7641102697674723e-02  5.9593409288909431e-02  5.5969531659044051e-02  6.0158903355834098e-02  5.4434630231783035e-02  4.5307167162672857e-02  3.7008382893114415e-02  3.3035647645054796e-02  2.6126425085250597e-02  2.0136906742926695e-02  1.6410422891693088e-02  1.2687619607631703e-02  1.1552922320411958e-02  1.0767887615939636e-02  9.9430683999703132e-03  1.0451359505218513e-02  1.1452611217594281e-02  1.2379589834863739e-02  1.5881969802563484e-02  1.9204783510467748e-02  2.4878858447052322e-02  3.1371164062212444e-02  3.5174264609256198e-02  4.3127737147383681e-02  5.1880112534923764e-02  5.7487971413482761e-02  5.3847588107551379e-02  5.7629409992508325e-02  5.6191509288763451e-02  5.3181869066051345e-02  4.6367282006267753e-02  3.0833051279717395e-02  2.2610020452755928e-02  1.6252064548179335e-02  2.2719924037274335e-02  4.3033541721709027e-02  7.5270592053700375e-02  1.0094418133841036e-01  1.3558755962109253e-01  1.4379335186796927e-01  1.5180614532930986e-01  1.5495658591473219e-01  1.5032689800731208e-01  1.3996397358642568e-01  1.2613819257943201e-01  1.2379665506913790e-01  1.1175965519062311e-01  9.4855778043505382e-02  8.4882246664594527e-02  6.9805881977481346e-02  6.3991495105678198e-02  5.1863132599003388e-02  3.4226988687295637e-02  1.7525636213270000e-02  2.5575881832050919e-02  5.3581259417330114e-02  9.4007378698023183e-02  1.1897121434308379e-01  1.2070324221764765e-01  1.4020226996665799e-01  1.2861428479404338e-01  1.0368971756540928e-01  1.1372477876720867e-01  1.2080718961717182e-01  1.3224262593047939e-01  1.3097400043184723e-01  1.1525859460784942e-01  7.6879411069178880e-02  4.6415392368923329e-02  1.8581511520770793e-02  2.5676936015377669e-02  4.4245769728495754e-02  5.9430392114271834e-02  6.8535256849071774e-02  8.5895607489270054e-02  9.7249397415547098e-02  1.1585429800767667e-01  1.2893443881605612e-01  1.3229816058292698e-01  1.4732473376340890e-01  1.5971830667391679e-01  1.6503865271120957e-01  1.5272768596696126e-01  1.6883242311700197e-01  1.5729934675129575e-01  1.3991919990707273e-03  2.7481763616042862e-03  6.2163961423624481e-03  1.0063254048024290e-02  1.2312368562544175e-02  2.0255926786933179e-02  2.5598870587011130e-02  2.7364824652750520e-02  3.9587462222943050e-02  4.7295092669382997e-02  4.6143044568080716e-02  6.1088380448137053e-02  6.4490464406623801e-02  6.6291419265653392e-02  7.4688302157339959e-02  6.1867056826179385e-02  7.7374682426111757e-02  5.3085211273308779e-02  5.3095206745040854e-02  2.8506510271756710e-02  1.8650843114036982e-02  1.7792399254541524e-02  2.0013495077440831e-02  3.6741691447366477e-02  5.2132093556761461e-02  6.5474370941670329e-02  7.3264703312989121e-02  8.2441327765293074e-02  8.1735980858531981e-02  8.9872785072241043e-02  9.0085773770028785e-02  8.3314568595523178e-02  8.6460616466845205e-02  8.4217728666687836e-02  7.6660579159135780e-02  7.8121276652602989e-02  7.5131697098428527e-02  7.3277731866087215e-02  8.1161945796388996e-02  4.7679687014373896e-02  3.8287244518425446e-02  3.3175201032904826e-02  2.4925311508588843e-02  1.9457566060284905e-02  1.3359274607931650e-02  6.4111942491177779e-03  2.8480842672378125e-03  5.4354326527171579e-04  5.3250144371815291e-03  8.5238519050597483e-03  1.0154914750990294e-02  1.1165839827540758e-02  1.1304044126924173e-02  1.0961700332440363e-02  9.5197039404791243e-03  8.2578214999002378e-03  6.5649764632339808e-03  4.5075653877043676e-03  3.7837438829047029e-03  4.3198252844404601e-03  6.1128049881008333e-03  7.7769690343457666e-03  9.0174683193583825e-03  1.0489571656663909e-02  1.0871450281934526e-02  1.0831115595518711e-02  9.9656456665005080e-03  8.4885835555424879e-03  5.5307615285967232e-03  1.2887213222324955e-03  2.1709262888045550e-03  5.2243898679144082e-03  1.1690447175564656e-02  1.7410817627106105e-02  2.2758936995861481e-02  3.0534081515929134e-02  3.5157204049526311e-02  4.3847605391441759e-02  7.4869950420397097e-02  6.7600832620624815e-02  6.9489226966334736e-02  7.2132538938164389e-02  7.1126912493359756e-02  7.8166242299556599e-02  8.0061714998319891e-02  7.7127084410467825e-02  8.3660582939658140e-02  8.3572831411760140e-02  7.5886150090523352e-02  7.6712360009206448e-02  6.8095590048099425e-02  6.0770658769431933e-02  4.8370462703852299e-02  3.3529122976089003e-02  1.7964231362210745e-02  1.6026593265450174e-02  1.8978266835569906e-02  2.9188508675670917e-02  4.9213408597255155e-02  5.3190680918829517e-02  7.6951762232117860e-02  6.2234628703138721e-02  7.5087378557613632e-02  6.7439252285259918e-02  6.5712125258802545e-02  6.2955397534903632e-02  4.8520452187022091e-02  4.9856100038204051e-02  4.2388912586953702e-02  3.0244363310290727e-02  2.8199064840231488e-02  2.2428438465671149e-02  1.3636077399846564e-02  1.0960046711136876e-02  6.6801486972054994e-03  2.7988027700578521e-03  1.4419219308110355e-03  1.4206475468702309e-03  2.8882686975483579e-03  6.5190637194015646e-03  1.0186719331896642e-02  1.1261056934496394e-02  1.5201867789763703e-02  1.3622758536600521e-02  7.8822267473534924e-03  6.5074440315196535e-03  1.1078092721970819e-02  2.8575578113488206e-02  5.1527636238982495e-02  8.0780446735548461e-02  9.9660563553737508e-02  2.3848228691969994e-01  2.1056352302635678e-01  2.5042232593910949e-02  5.1700615402705895e-02  1.5265937752134287e-02  1.7429511985744151e-02  1.3943566780248065e-02  2.2385758693747069e-02  1.7380167422436685e-02  3.4975033123820810e-02  2.7395714791289522e-01  2.8811020679163168e-01  1.2386624555550999e-01  8.0400489407188969e-02  4.4621734502874023e-02  2.2896137552933429e-02  9.5125933461523097e-03  6.0258735525938068e-03  7.0453759483458892e-03  1.2335322226300387e-02  9.4616337703340922e-03  9.2343291062030076e-03  5.9880107949296267e-03  2.9581236286044406e-03  1.4579885661096931e-03  1.9846147056956032e-02  1.8586240365681624e-02  2.2334032760656413e-02  1.6422943254767827e-02  1.2973395212731038e-02  4.5100575877281897e-02  2.1853734699351621e-02  3.5403569040921033e-02  2.5870462735115951e-02  3.1598439548225228e-02  1.2958102423320791e-02  5.5869960738392718e-02  5.0270076602265172e-02  2.3302314666299485e-02  1.7345535417307174e-02  7.9148560099118220e-02  2.6807917423254304e-02  4.5863275241918064e-02  9.1954624484677797e-02  1.6611186934921925e-02  1.0632901397087533e-02  4.2824707255751555e-02  8.0957633876395842e-03  3.8290384208406227e-02  6.9187758080058942e-03  1.2874685775846051e-02  1.4009024371511535e-02  4.9321130728917813e-02  1.2546794307676259e-02  4.5088230805854584e-02  5.4363852861045595e-03  1.9614286327552979e-02  1.4921114919274118e-02  3.9143327365409861e-02  1.4403321085732028e-02  4.3807151826309523e-02  1.1967260497340223e-02  7.5796106713113390e-02  3.1953682235575161e-02  5.4299738479600658e-02  5.9021167536260667e-02  2.7906969522760523e-02  5.7427362777782695e-02  1.1348073959681194e-02  4.8645465688598122e-02  5.5935010088770852e-02  5.9347956405572805e-02  4.5965359337610874e-02  7.1728702207880498e-03  1.9839609560586065e-02  1.9576176758167040e-02  6.8925135606610292e-03  4.2884954297461066e-02  1.8494153824342368e-02  1.8250054598181551e-02  5.0137116061958475e-02  1.2349136461254783e-02  4.7275986108451781e-02  1.2417587758251846e-02  5.4445760301380389e-02  1.2878060451113433e-02  4.9710149906694187e-02  1.2132327763468165e-02  6.0449600621501350e-02  2.2247716322398650e-02  5.6129488570306328e-02  2.8773803754906534e-02  5.2156588160002973e-02  5.6052868846291827e-02  2.6475659077068843e-02  2.1438266631952897e-02  6.5694001607778052e-02  2.9483426044710402e-02  6.3360132727635996e-03  6.0981235930213798e-03  3.7935499960216439e-02  2.1439847379113811e-02  7.4588235981853813e-03  5.3288477848363908e-02  1.0996948835650935e-02  5.8663747843332552e-02  1.3184257378656168e-02  1.8913296615113647e-02  5.0346368829122714e-03  2.3059483984759530e-02  5.6884577138773878e-03  1.6388441307184694e-02  5.6443529636854117e-02  6.1343605484880728e-02  1.8234644675031244e-02  3.0955170981360140e-02  6.0441288615643652e-03  2.8830207260620508e-02  1.9802003121917756e-02  2.5505275417419749e-02  2.2721634005829282e-02  2.2093855050557030e-02  5.3124728621543597e-02  2.1469004379853579e-02  5.6503397197590469e-02  5.7409529483626279e-02  6.5726702337201830e-03  5.6526773889525248e-03  5.2686080024609984e-02  4.7114169671834835e-02  5.9847323226055883e-02  1.7237142640993502e-02  7.5610715455535230e-02  6.4384471337279356e-02  4.3184606342352397e-02  7.6499985706150173e-02  1.6461372360342726e-02  1.3011923712939275e-02  9.6874136955297910e-02  1.7387991934120880e-02  5.2769084953975268e-02  1.9567327991504860e-02  5.7495015337543982e-02  1.2575704203503207e-01  1.2439871010563631e-02  1.8363095089414697e-02  4.1357758192425657e-03  3.9874437048866618e-02  3.6191854093779535e-02  9.8549799118137910e-03  2.3903237141636131e-02  1.0463285816005250e-02  3.4780733642292554e-02  3.7188025623604119e-02  1.2489702635976681e-02  1.0268631315675661e-02  1.9764702339963702e-02  9.7713831706535709e-03  7.5040312267965143e-03  1.9031265301364945e-02  5.1860732260627963e-02  1.8156710222132177e-02  4.8336941048132930e-02  7.9828815815769193e-03  2.7001135596011951e-02  1.0061262796391288e-02  5.4155008890001924e-02  6.8783654686788515e-02  6.2277431979941726e-02  5.7443460648166966e-02  7.2907416461925639e-02  1.0636322360655648e-02  5.4751233077507969e-02  2.7336591933832529e-02  5.1872553647603112e-02  4.6127703473081351e-02  2.8330622365094607e-02  1.0128897626268918e-02  3.0939551922523345e-02  9.1808538116715764e-03  3.7918218409868115e-02  2.9132239867743579e-02  4.9728584678801167e-02  2.8418536982430461e-02  5.2970710274431503e-02  5.9765277660763928e-02  1.3589457631753519e-02  1.8658432330676957e-02  5.6857181228459161e-02  6.1890796099023676e-02  1.9871525946243335e-02  1.3121183216174193e-02  7.9444962292274546e-02  7.8632786785211267e-02  6.7456556619874208e-02  4.6037239181581022e-02  8.2157379336062087e-03  8.2715257817435623e-03  3.6661958013901437e-02  5.7351266273462792e-02  8.4159924454385304e-03  1.0108797673893053e-02  6.3044329137376606e-02  3.2817770206103096e-02  6.3962931589353848e-03  6.1804561164053834e-02  2.2935999395899426e-02  7.3844967465554648e-02  3.3741439551052202e-02  7.8540550580429705e-02  3.1387706219570585e-02  2.1937374279917481e-02  6.8967838495690451e-02  1.7147827331744303e-02  6.2099281591635483e-02  4.2871783015696246e-02  2.1545906390691219e-02  2.5167090634320308e-02  3.8780304950591690e-02  1.6617025715775488e-02  7.5199320088732688e-02  9.1146545092702473e-03  8.8830612182201341e-03  6.1893671556131610e-02  1.4067040325833004e-02  1.6992798330629621e-02  6.7668560292442295e-02  7.4688253658842822e-03  8.9479305435139385e-03  2.8284422458503201e-02  6.0359989470559804e-03  4.1631817681991423e-02  1.6321210471972564e-02  1.7775855817408433e-02  3.7804326155369231e-02  3.7802562914762458e-02  6.5229835247678451e-03  2.0909721937705187e-02  3.1809872479142062e-02  3.6955375288819238e-02  1.8273927396918899e-02  6.6748506348588130e-02  1.4695908330863630e-02  4.9359118643456705e-02  8.4020955159184077e-02  4.5616114421811294e-02  8.9187698659218148e-02  6.9314663500277582e-02  1.4092269502583956e-02  4.8504341538601607e-02  2.1455841365536653e-02  1.0453724937867606e-02  1.1269834507061451e-01  9.9030254596676158e-03  4.9985503480706683e-02  5.2602624931058120e-02  2.2626783451260429e-02  1.6596714199598153e-02  1.1124892652262745e-02  3.0336747225156748e-02  1.6321594501012889e-02  2.9021476291646961e-02  5.7709400694742813e-02  2.8540199862777098e-02  6.0517924568205247e-02  1.7941826631679900e-02  4.6582567562488277e-02  5.5794056577753139e-02  1.7587523035789442e-02  7.4546308917179158e-02  7.5883552826486581e-02  5.2145719671396897e-02  8.8552554630451901e-03  1.7177570269508797e-02  4.4821201616122583e-03  3.9214455550673724e-02  2.6651023707066568e-02  2.0672747746072043e-02  4.1827968897981960e-03  2.6558868965145536e-02  3.6939567930588522e-02  6.4325008102512751e-02  9.1185516007687387e-02  9.4292095232566230e-03  6.5329476041081469e-02  7.3613006566661116e-03  2.5232793378493421e-02  2.0448451943711619e-02  6.2225890775105645e-02  2.2815803088261952e-02  6.7519875523221889e-02  3.4322288820475409e-02  7.5044773527988533e-03  4.6417324509980033e-02  3.1847624858622081e-02  3.0768593772061221e-02  4.9649047813034954e-02  7.4795164569815093e-03  2.2784163460613373e-02  1.3875550568425687e-02  3.4204279286557761e-02  1.2566767903602481e-02  4.7885950027086448e-02  4.0348417734290175e-02  1.1209148286146284e-02  1.1171481463349479e-02  5.1753578712368582e-02  1.4133554803625607e-02  4.3502443523710931e-02  2.6892864834705245e-02  7.1492121078646623e-02  2.6288920345607394e-02  7.5273117107200124e-02  2.7461434710241470e-02  3.9979450878995737e-02  2.4713888293440688e-02  4.4110750583855315e-02  2.7362047507009865e-02  5.5530669839888525e-02  8.3503018713485727e-02  1.3371226088883270e-02  1.4034535315158870e-02  8.4033152115446458e-02  5.0920470939040119e-02  3.1395669229310870e-02  6.3765266457499442e-02  1.6692463461066908e-02  9.4652807766474421e-03  4.5292632064925552e-03  6.9154370294604930e-02  1.8994843925331836e-02  3.6770604253375961e-03  1.1724262744083398e-02  1.7363979229099699e-02  2.4669443481271092e-02  1.6960775948003572e-02  2.7818637245792196e-02  2.9179116301697196e-02  4.3204427117961013e-02  3.0470136676657281e-02  4.0465197347123019e-02  1.0757128854327794e-02  3.8745392467212272e-02  2.6265850046946541e-02  6.1768159200265939e-02  2.8663542976892088e-02  6.7004199566832123e-02  1.0566425805003129e-02  5.4348135966014739e-02  4.1887530293396993e-02  1.8518655825885817e-02  4.7797017177835868e-02  1.8325253643493678e-02  6.2677688173818052e-02  9.7845875860137609e-03  6.3963173106765969e-02  8.1895671719405955e-02  9.0288850660265613e-03  1.7214186909933392e-02  4.3572251702158629e-02  1.1038178197265972e-02  5.5627754805562674e-03  1.4680118483637410e-02  2.0485930697182429e-02  3.5338168785784808e-02  1.9353273892566577e-02  3.2770669628347959e-02  2.2811042286139394e-02  6.0307090055850424e-03  1.3751510273824669e-02  6.9218083430763827e-02  5.8529310083527590e-03  1.4425655121126675e-02  8.4851456275581109e-03  1.5573143596757901e-02  1.2069034417078078e-02  6.3897939328468559e-02  4.6549785005229480e-02  1.1513988624081758e-02  6.8225373557367491e-03  2.6088960455339632e-02  1.9436815746376131e-02  6.9195556919631279e-02  4.2567991790836188e-02  3.6999704523273003e-02  4.6602000318008291e-02  3.3621611206663619e-02  1.8687417344585924e-02  7.9475007352266452e-02  1.5369840081515405e-02  6.5515392158487992e-02  1.2998279964999349e-02  4.6430920073073645e-02  5.1011486369770466e-02  9.9526047999402342e-03  1.4834632192465537e-02  8.1037212114221269e-02  5.6169810113192518e-02  1.8959862104937088e-02  6.7412225539078746e-02  1.8419239599745153e-02  2.7215277323552750e-02  8.6054497816988790e-02  9.0561950295613411e-02  2.6970578555733853e-02  1.2268798649645564e-02  3.9603757690387625e-02  4.8585680025083497e-02  1.2445658432909826e-02  6.3651944876100097e-02  2.4835713099201446e-03  2.3720747965895622e-03  5.8687436801139269e-02  1.2520255599219633e-02  5.0193947050319439e-02  1.3424900858977249e-02  9.9568216436418042e-03  8.5632403889235095e-03  2.9336816297453300e-02  9.2310122813121873e-03  4.2522895007214095e-02  6.2179124591475845e-03  4.1350510922524376e-02  6.1782546396196097e-02  5.8432260235046340e-03  6.7344268388327980e-02  6.3222269537600044e-03  3.8049735496534953e-02  5.1584038273676143e-03  6.8491487044727684e-02  1.1001434523636158e-02  2.2495772729938655e-02  6.4352616491708987e-03  2.5073376119083581e-02  8.3121429560729255e-03  9.4257826239046143e-03  6.2731086169582978e-02  2.2804367653519182e-02  1.0137599490279739e-02  8.5452022519783670e-03  2.8907872382653115e-02  7.3939537385516771e-02  1.2699269267913567e-02  5.6575805447563125e-02  2.7159315136476930e-02  6.1480695241401685e-02  3.0474729965758920e-02  1.2231275871194755e-02  9.7607970079338871e-02  4.6367394605337009e-02  6.0538079560121819e-02  6.4634531212617577e-03  1.7723807115293911e-02  3.5202169052192291e-02  5.0767684137848219e-02  1.8127420825390722e-01  1.0971397076247608e-02  1.1499683397565947e-02  1.2265082665613737e-01  5.5194214599166562e-02  3.7600583155321152e-02  1.3382201154332727e-02  5.5476028552166962e-02  2.3425014183993863e-02  3.0704249892127668e-03  3.1259490244815811e-03  1.7225926399432896e-02  1.1763566967765688e-02  5.0711618946375096e-02  3.6475730774457718e-02  9.9823977924847884e-03  4.5780115252460667e-02  1.0293768620654819e-02  2.2430916671298200e-02  5.2300314738093108e-03  8.4485833279337938e-03  3.0754943083938283e-02  5.8369596056067848e-02  3.7731566572122420e-02  4.3420878104244325e-02  5.5016086472670186e-02  7.9000386232911512e-03  2.4611912471335071e-02  2.0514526008666694e-02  5.4227590628918972e-02  8.6423047392508043e-02  2.8787818784527627e-02  9.1810722883867948e-02  2.6609101700944826e-02  1.9634182450641004e-02  6.2235027310417676e-02  2.1186115003502759e-02  2.6100391023824193e-02  3.2414525097313830e-02  1.7671356878822993e-02  1.8428725621801416e-02  7.2373409226823671e-02  4.0878237999021759e-02  4.8915999961072702e-02  5.3153145115537231e-02  3.7223935374652892e-02  1.7651550165018581e-02  7.8088623591273568e-02  1.0817404030828044e-02  3.8697366423473011e-03  2.4518186975758745e-02  6.8926145264691346e-02  7.4475344444334762e-02  2.7053133512903359e-02  1.6554240101188913e-02  4.1229654009137164e-03  2.9291360799190050e-02  2.4714156369852740e-02  2.6459262839943137e-02  2.8639225737186417e-02  2.6302502343863644e-02  1.2876652937139216e-02  1.4444553750255624e-02  2.2621179533747007e-02  3.2620417444345275e-02  2.8037130977338905e-02  2.6801756876208817e-02  4.0314313584519167e-02  3.7529926656171428e-02  1.5299817752289651e-02  3.4395439602949697e-02  1.6268269340195946e-02  1.4470930854435965e-02  8.0763671248260616e-02  5.0744729016198149e-02  7.9804603663976171e-03  6.6828386702269199e-03  5.5518220664221206e-02  9.9229107902838745e-02  1.3877487849147415e-02  8.4313970899277946e-03  4.6015640588890391e-02  4.9976048662342808e-02  7.7241580771984638e-03  4.8513384906910664e-02  5.7496500467532116e-02  1.6548044370583548e-02  6.4235837871413990e-03  3.2989700444195899e-02  7.8696082742521725e-02  3.3333220103770433e-02  7.5544066173520344e-02  8.3353893349978683e-02  1.2799819429199687e-02  1.0212310475186201e-01  4.7689839740380213e-02  4.3923958664928819e-02  1.1198180298146458e-01  1.3203119676207208e-02  8.1629409390572269e-02  1.0949862584220765e-02  3.4495654250076800e-02  9.0554541656503746e-03  3.0086751668004959e-02  2.5185518177742866e-02  3.0419806290536942e-03  2.3591614968993400e-02  2.0313915333583770e-02  1.1067120487646601e-01  5.5834657944837482e-02  8.3479294590625197e-02  1.1362254895837972e-02  5.2844903988425757e-02  2.2175436540190534e-02  2.1529213464834603e-02  6.2451386052517342e-02  6.2419615682004964e-02  1.7342346810462959e-02  9.5777796007878280e-02  3.1033854257848242e-02  8.9923901062265207e-02  3.4306843689146785e-02  1.6632940921753044e-02  6.8973276281683232e-02  5.1508435148342718e-02  7.5822279759232064e-03  8.7453748431074937e-02  1.1480603600692070e-02  5.6158566671056863e-02  7.0637771070342836e-03  1.2073594650273821e-02  9.8745980014193796e-02  3.6245891757539131e-02  2.6344020487556859e-02  3.2620476798419243e-02  3.0324155799805675e-02  1.9953163879379853e-02  4.5341006672349415e-02  4.9467610797886703e-02  1.9271697714392213e-02  9.5145573813970648e-03  2.7978287453157221e-02  3.0066041297177052e-02  6.0847533775214666e