<?xml version="1.0"?>
<VTKFile type="UnstructuredGrid"  version="0.1"  >
<UnstructuredGrid>
<Piece  NumberOfPoints="44" NumberOfCells="60">
<Points>
<DataArray  type="Float64"  NumberOfComponents="3"  format="ascii">0 0 0  0.1 0 0  0.2 0 0  0.3 0 0  0.4 0 0  0.5 0 0  0.6 0 0  0.7 0 0  0.8 0 0  0.9 0 0  1 0 0  0 0.06666666666666667 0  0.1 0.06666666666666667 0  0.2 0.06666666666666667 0  0.3 0.06666666666666667 0  0.4 0.06666666666666667 0  0.5 0.06666666666666667 0  0.6 0.06666666666666667 0  0.7 0.06666666666666667 0  0.8 0.06666666666666667 0  0.9 0.06666666666666667 0  1 0.06666666666666667 0  0 0.1333333333333333 0  0.1 0.1333333333333333 0  0.2 0.1333333333333333 0  0.3 0.1333333333333333 0  0.4 0.1333333333333333 0  0.5 0.1333333333333333 0  0.6 0.1333333333333333 0  0.7 0.1333333333333333 0  0.8 0.1333333333333333 0  0.9 0.1333333333333333 0  1 0.1333333333333333 0  0 0.2 0  0.1 0.2 0  0.2 0.2 0  0.3 0.2 0  0.4 0.2 0  0.5 0.2 0  0.6 0.2 0  0.7 0.2 0  0.8 0.2 0  0.9 0.2 0  1 0.2 0  </DataArray>
</Points>
<Cells>
<DataArray  type="UInt32"  Name="connectivity"  format="ascii">0 1 12  0 11 12  1 2 13  1 12 13  2 3 14  2 13 14  3 4 15  3 14 15  4 5 16  4 15 16  5 6 17  5 16 17  6 7 18  6 17 18  7 8 19  7 18 19  8 9 20  8 19 20  9 10 21  9 20 21  11 12 23  11 22 23  12 13 24  12 23 24  13 14 25  13 24 25  14 15 26  14 25 26  15 16 27  15 26 27  16 17 28  16 27 28  17 18 29  17 28 29  18 19 30  18 29 30  19 20 31  19 30 31  20 21 32  20 31 32  22 23 34  22 33 34  23 24 35  23 34 35  24 25 36  24 35 36  25 26 37  25 36 37  26 27 38  26 37 38  27 28 39  27 38 39  28 29 40  28 39 40  29 30 41  29 40 41  30 31 42  30 41 42  31 32 43  31 42 43  </DataArray>
<DataArray  type="UInt32"  Name="offsets"  format="ascii">3 6 9 12 15 18 21 24 27 30 33 36 39 42 45 48 51 54 57 60 63 66 69 72 75 78 81 84 87 90 93 96 99 102 105 108 111 114 117 120 123 126 129 132 135 138 141 144 147 150 153 156 159 162 165 168 171 174 177 180 </DataArray>
<DataArray  type="UInt8"  Name="types"  format="ascii">5 5 5 5 5 5 5 5 5 5 5 5 5 5 5 5 5 5 5 5 5 5 5 5 5 5 5 5 5 5 5 5 5 5 5 5 5 5 5 5 5 5 5 5 5 5 5 5 5 5 5 5 5 5 5 5 5 5 5 5 </DataArray>
</Cells>
<PointData  Vectors="f_9"> 
<DataArray  type="Float64"  Name="f_9"  NumberOfComponents="3" format="ascii">0.0000000000000000e+00 0.0000000000000000e+00 0.0000000000000000e+00  -5.0407565634938119e-03 -4.5638411596841157e-03 0.0000000000000000e+00  -9.0232653963912644e-03 -1.2767256354533744e-02 0.0000000000000000e+00  -1.2181780350883492e-02 -2.4352678777062712e-02 0.0000000000000000e+00  -1.4579247651160478e-02 -3.8544697200931344e-02 0.0000000000000000e+00  -1.6307737286344510e-02 -5.4623008486771374e-02 0.0000000000000000e+00  -1.7473428271317669e-02 -7.1973437213908628e-02 0.0000000000000000e+00  -1.8186709103870810e-02 -9.0093089424307077e-02 0.0000000000000000e+00  -1.8559067426116290e-02 -1.0859081684392548e-01 0.0000000000000000e+00  -1.8702096642972128e-02 -1.2718690770243649e-01 0.0000000000000000e+00  -1.8730837558474270e-02 -1.4571752016837392e-01 0.0000000000000000e+00  0.0000000000000000e+00 0.0000000000000000e+00 0.0000000000000000e+00  -1.4373051265825253e-03 -3.7256808619547718e-03 0.0000000000000000e+00  -2.9131169819666476e-03 -1.2078415185319468e-02 0.0000000000000000e+00  -4.0398912759325922e-03 -2.3809138805969885e-02 0.0000000000000000e+00  -4.8863094941949403e-03 -3.8133229657655456e-02 0.0000000000000000e+00  -5.4993178566230799e-03 -5.4326179329668545e-02 0.0000000000000000e+00  -5.9190593063479261e-03 -7.1772570435314223e-02 0.0000000000000000e+00  -6.1835641376625974e-03 -8.9969221736505359e-02 0.0000000000000000e+00  -6.3301198849844559e-03 -1.0852504724839385e-01 0.0000000000000000e+00  -6.3952721418231821e-03 -1.2716109547295390e-01 0.0000000000000000e+00  -6.4124317982396676e-03 -1.4571010564197195e-01 0.0000000000000000e+00  0.0000000000000000e+00 0.0000000000000000e+00 0.0000000000000000e+00  1.5321846575151316e-03 -3.7027651476354414e-03 0.0000000000000000e+00  2.8224203149060313e-03 -1.1974216457656381e-02 0.0000000000000000e+00  3.8189858737252831e-03 -2.3728359948379709e-02 0.0000000000000000e+00  4.5777501792467357e-03 -3.8069745402908209e-02 0.0000000000000000e+00  5.1239070267702861e-03 -5.4274981428456937e-02 0.0000000000000000e+00  5.4906813367854058e-03 -7.1732025843957700e-02 0.0000000000000000e+00  5.7143698974652752e-03 -8.9938851232241157e-02 0.0000000000000000e+00  5.8318514024250636e-03 -1.0850455761069748e-01 0.0000000000000000e+00  5.8794639213839211e-03 -1.2714998316414000e-01 0.0000000000000000e+00  5.8913636690084053e-03 -1.4570868157659236e-01 0.0000000000000000e+00  0.0000000000000000e+00 0.0000000000000000e+00 0.0000000000000000e+00  4.7355264693394669e-03 -4.3636913703830335e-03 0.0000000000000000e+00  8.8217717957807754e-03 -1.2503885246267757e-02 0.0000000000000000e+00  1.1957681482393560e-02 -2.4125477139162566e-02 0.0000000000000000e+00  1.4291984049223399e-02 -3.8358546403354780e-02 0.0000000000000000e+00  1.5958846669037265e-02 -5.4470587206037181e-02 0.0000000000000000e+00  1.7072565571244300e-02 -7.1852154133521279e-02 0.0000000000000000e+00  1.7745116988190382e-02 -9.0002278446108391e-02 0.0000000000000000e+00  1.8088346910938958e-02 -1.0853034788947447e-01 0.0000000000000000e+00  1.8214524289733459e-02 -1.2715736237959763e-01 0.0000000000000000e+00  1.8237210153557133e-02 -1.4571833571782453e-01 0.0000000000000000e+00  </DataArray> 
</PointData> 
</Piece>
</UnstructuredGrid>
</VTKFile>