<?xml version="1.0"?>
<VTKFile type="UnstructuredGrid"  version="0.1"  >
<UnstructuredGrid>
<Piece  NumberOfPoints="44" NumberOfCells="60">
<Points>
<DataArray  type="Float64"  NumberOfComponents="3"  format="ascii">0 0 0  0.1 0 0  0.2 0 0  0.3 0 0  0.4 0 0  0.5 0 0  0.6 0 0  0.7 0 0  0.8 0 0  0.9 0 0  1 0 0  0 0.06666666666666667 0  0.1 0.06666666666666667 0  0.2 0.06666666666666667 0  0.3 0.06666666666666667 0  0.4 0.06666666666666667 0  0.5 0.06666666666666667 0  0.6 0.06666666666666667 0  0.7 0.06666666666666667 0  0.8 0.06666666666666667 0  0.9 0.06666666666666667 0  1 0.06666666666666667 0  0 0.1333333333333333 0  0.1 0.1333333333333333 0  0.2 0.1333333333333333 0  0.3 0.1333333333333333 0  0.4 0.1333333333333333 0  0.5 0.1333333333333333 0  0.6 0.1333333333333333 0  0.7 0.1333333333333333 0  0.8 0.1333333333333333 0  0.9 0.1333333333333333 0  1 0.1333333333333333 0  0 0.2 0  0.1 0.2 0  0.2 0.2 0  0.3 0.2 0  0.4 0.2 0  0.5 0.2 0  0.6 0.2 0  0.7 0.2 0  0.8 0.2 0  0.9 0.2 0  1 0.2 0  </DataArray>
</Points>
<Cells>
<DataArray  type="UInt32"  Name="connectivity"  format="ascii">0 1 12  0 11 12  1 2 13  1 12 13  2 3 14  2 13 14  3 4 15  3 14 15  4 5 16  4 15 16  5 6 17  5 16 17  6 7 18  6 17 18  7 8 19  7 18 19  8 9 20  8 19 20  9 10 21  9 20 21  11 12 23  11 22 23  12 13 24  12 23 24  13 14 25  13 24 25  14 15 26  14 25 26  15 16 27  15 26 27  16 17 28  16 27 28  17 18 29  17 28 29  18 19 30  18 29 30  19 20 31  19 30 31  20 21 32  20 31 32  22 23 34  22 33 34  23 24 35  23 34 35  24 25 36  24 35 36  25 26 37  25 36 37  26 27 38  26 37 38  27 28 39  27 38 39  28 29 40  28 39 40  29 30 41  29 40 41  30 31 42  30 41 42  31 32 43  31 42 43  </DataArray>
<DataArray  type="UInt32"  Name="offsets"  format="ascii">3 6 9 12 15 18 21 24 27 30 33 36 39 42 45 48 51 54 57 60 63 66 69 72 75 78 81 84 87 90 93 96 99 102 105 108 111 114 117 120 123 126 129 132 135 138 141 144 147 150 153 156 159 162 165 168 171 174 177 180 </DataArray>
<DataArray  type="UInt8"  Name="types"  format="ascii">5 5 5 5 5 5 5 5 5 5 5 5 5 5 5 5 5 5 5 5 5 5 5 5 5 5 5 5 5 5 5 5 5 5 5 5 5 5 5 5 5 5 5 5 5 5 5 5 5 5 5 5 5 5 5 5 5 5 5 5 </DataArray>
</Cells>
<PointData  Scalars="f_46"> 
<DataArray  type="Float64"  Name="f_46"  format="ascii">8.0009824934629015e-05  6.6109764651359889e-03  1.5360340236264858e-02  2.6950188327142733e-02  4.0956047676686751e-02  5.6783968893346713e-02  7.3874329588562881e-02  9.1749297735415819e-02  1.1002853780532358e-01  1.2843521568790614e-01  1.4684837439026990e-01  7.4318031568653278e-06  3.8302847875264319e-03  1.2184417628500543e-02  2.3910080583726349e-02  3.8226277100549579e-02  5.4410257624179489e-02  7.1847899463247100e-02  9.0036363956281285e-02  1.0858416956391023e-01  1.2721638991452777e-01  1.4574874594464729e-01  1.8507181708388520e-05  3.9057549908475238e-03  1.2118137874275048e-02  2.3853090453081933e-02  3.8174743327722291e-02  5.4363691600951759e-02  7.1806862799724119e-02  9.0001905080028796e-02  1.0855771390768340e-01  1.2719562838163584e-01  1.4574597822132443e-01  1.2406276089450109e-05  6.3961688574350143e-03  1.5213808406006880e-02  2.6800801173964155e-02  4.0795589882539590e-02  5.6626821715744909e-02  7.3729992542489187e-02  9.1625334416043938e-02  1.0993051574342813e-01  1.2837043539384355e-01  1.4677596041121080e-01  </DataArray> 
</PointData> 
</Piece>
</UnstructuredGrid>
</VTKFile>