<?xml version="1.0"?>
<VTKFile type="UnstructuredGrid"  version="0.1"  >
<UnstructuredGrid>
<Piece  NumberOfPoints="44" NumberOfCells="60">
<Points>
<DataArray  type="Float64"  NumberOfComponents="3"  format="ascii">0 0 0  0.1 0 0  0.2 0 0  0.3 0 0  0.4 0 0  0.5 0 0  0.6 0 0  0.7 0 0  0.8 0 0  0.9 0 0  1 0 0  0 0.06666666666666667 0  0.1 0.06666666666666667 0  0.2 0.06666666666666667 0  0.3 0.06666666666666667 0  0.4 0.06666666666666667 0  0.5 0.06666666666666667 0  0.6 0.06666666666666667 0  0.7 0.06666666666666667 0  0.8 0.06666666666666667 0  0.9 0.06666666666666667 0  1 0.06666666666666667 0  0 0.1333333333333333 0  0.1 0.1333333333333333 0  0.2 0.1333333333333333 0  0.3 0.1333333333333333 0  0.4 0.1333333333333333 0  0.5 0.1333333333333333 0  0.6 0.1333333333333333 0  0.7 0.1333333333333333 0  0.8 0.1333333333333333 0  0.9 0.1333333333333333 0  1 0.1333333333333333 0  0 0.2 0  0.1 0.2 0  0.2 0.2 0  0.3 0.2 0  0.4 0.2 0  0.5 0.2 0  0.6 0.2 0  0.7 0.2 0  0.8 0.2 0  0.9 0.2 0  1 0.2 0  </DataArray>
</Points>
<Cells>
<DataArray  type="UInt32"  Name="connectivity"  format="ascii">0 1 12  0 11 12  1 2 13  1 12 13  2 3 14  2 13 14  3 4 15  3 14 15  4 5 16  4 15 16  5 6 17  5 16 17  6 7 18  6 17 18  7 8 19  7 18 19  8 9 20  8 19 20  9 10 21  9 20 21  11 12 23  11 22 23  12 13 24  12 23 24  13 14 25  13 24 25  14 15 26  14 25 26  15 16 27  15 26 27  16 17 28  16 27 28  17 18 29  17 28 29  18 19 30  18 29 30  19 20 31  19 30 31  20 21 32  20 31 32  22 23 34  22 33 34  23 24 35  23 34 35  24 25 36  24 35 36  25 26 37  25 36 37  26 27 38  26 37 38  27 28 39  27 38 39  28 29 40  28 39 40  29 30 41  29 40 41  30 31 42  30 41 42  31 32 43  31 42 43  </DataArray>
<DataArray  type="UInt32"  Name="offsets"  format="ascii">3 6 9 12 15 18 21 24 27 30 33 36 39 42 45 48 51 54 57 60 63 66 69 72 75 78 81 84 87 90 93 96 99 102 105 108 111 114 117 120 123 126 129 132 135 138 141 144 147 150 153 156 159 162 165 168 171 174 177 180 </DataArray>
<DataArray  type="UInt8"  Name="types"  format="ascii">5 5 5 5 5 5 5 5 5 5 5 5 5 5 5 5 5 5 5 5 5 5 5 5 5 5 5 5 5 5 5 5 5 5 5 5 5 5 5 5 5 5 5 5 5 5 5 5 5 5 5 5 5 5 5 5 5 5 5 5 </DataArray>
</Cells>
<PointData  Scalars="f_31"> 
<DataArray  type="Float64"  Name="f_31"  format="ascii">1.1989657511909299e-01  1.1918071827337305e-01  9.2504745826161416e-02  7.2197415629296116e-02  5.3309858905229740e-02  3.7084801064171433e-02  2.3843770206313675e-02  1.3639074509933175e-02  6.7387243383177182e-03  2.1214911522511354e-03  7.7763144416823483e-04  4.7287003401647737e-02  6.1316621153897514e-02  4.8158437560888639e-02  3.9717053893007254e-02  3.0786330729761262e-02  2.3367323544728664e-02  1.7047094676371510e-02  1.1702705248533800e-02  7.2489657358340244e-03  3.2026167406724727e-03  1.0084019313199679e-03  7.7145520599202558e-02  5.3556552565410677e-02  4.5369192281131218e-02  3.5425655364624629e-02  2.6783689376671450e-02  1.9814846033924985e-02  1.4076597432376776e-02  9.6244421742324414e-03  6.1350656710889451e-03  2.9108523696867012e-03  1.2100535909467536e-03  1.6360489330946459e-01  1.0514418588092553e-01  9.7037037566086823e-02  6.9716370217558138e-02  5.1674396923754522e-02  3.5885518769809555e-02  2.3100122815930775e-02  1.3278010732924582e-02  6.3287110903247155e-03  2.0369257394436536e-03  -2.5981787762251218e-04  </DataArray> 
</PointData> 
</Piece>
</UnstructuredGrid>
</VTKFile>