<?xml version="1.0"?>
<VTKFile type="UnstructuredGrid"  version="0.1"  >
<UnstructuredGrid>
<Piece  NumberOfPoints="27613" NumberOfCells="50972">
<Points>
<DataArray  type="Float64"  NumberOfComponents="3"  format="ascii">90 100 0  90 99 0  91 100 0  91 99 0  92 100 0  92 99 0  93 100 0  93 99 0  94 100 0  94 99 0  95 100 0  95 99 0  96 100 0  96 99 0  96.99999999999999 100 0  96.99999999999999 99 0  98 100 0  98 99 0  99 100 0  99 99 0  100 100 0  100 99 0  101 100 0  101 99 0  102 100 0  102 99 0  103 100 0  103 99 0  104 100 0  104 99 0  105 100 0  105 99 0  106 100 0  106 99 0  107 100 0  107 99 0  108 100 0  108 99 0  109 100 0  109 99 0  110 100 0  110 99 0  111 100 0  111 99 0  112 100 0  112 99 0  113 100 0  113 99 0  114 100 0  114 99 0  115 100 0  115 99 0  116 100 0  116 99 0  117 100 0  117 99 0  118 100 0  118 99 0  119 100 0  119 99 0  120 100 0  120 99 0  121 100 0  121 99 0  122 100 0  122 99 0  123 100 0  123 99 0  124 100 0  124 99 0  125 100 0  125 99 0  126 100 0  126 99 0  127 100 0  127 99 0  128 100 0  128 99 0  129 100 0  129 99 0  130 100 0  130 99 0  131 100 0  131 99 0  132 100 0  132 99 0  133 100 0  133 99 0  134 100 0  134 99 0  135 100 0  135 99 0  136 100 0  136 99 0  137 100 0  137 99 0  138 100 0  138 99 0  139 100 0  139 99 0  140 100 0  140 99 0  141 100 0  141 99 0  142 100 0  142 99 0  143 100 0  143 99 0  144 100 0  144 99 0  145 100 0  145 99 0  146 100 0  146 99 0  147 100 0  147 99 0  148 100 0  148 99 0  149 100 0  149 99 0  150 100 0  150 99 0  151 100 0  151 99 0  152 100 0  152 99 0  153 100 0  153 99 0  154 100 0  154 99 0  155 100 0  155 99 0  156 100 0  156 99 0  157 100 0  157 99 0  158 100 0  158 99 0  159 100 0  159 99 0  160 100 0  160 99 0  161 100 0  161 99 0  162 100 0  162 99 0  163 100 0  163 99 0  164 100 0  164 99 0  165 100 0  165 99 0  166 100 0  166 99 0  167 100 0  167 99 0  168 100 0  168 99 0  169 100 0  169 99 0  170 100 0  170 99 0  171 100 0  171 99 0  172 100 0  172 99 0  173 100 0  173 99 0  174 100 0  174 99 0  175 100 0  175 99 0  176 100 0  176 99 0  177 100 0  177 99 0  178 100 0  178 99 0  179 100 0  179 99 0  180 100 0  180 99 0  181 100 0  181 99 0  182 100 0  182 99 0  183 100 0  183 99 0  184 100 0  184 99 0  185 100 0  185 99 0  186 100 0  186 99 0  187 100 0  187 99 0  188 100 0  188 99 0  189 100 0  189 99 0  190 100 0  190 99 0  191 100 0  191 99 0  192 100 0  192 99 0  193 100 0  193 99 0  194 100 0  194 99 0  195 100 0  195 99 0  196 100 0  196 99 0  197 100 0  197 99 0  198 100 0  198 99 0  199 100 0  199 99 0  200 100 0  200 99 0  201 100 0  201 99 0  202 100 0  202 99 0  203 100 0  203 99 0  204 100 0  204 99 0  205 100 0  205 99 0  206 100 0  206 99 0  207 100 0  207 99 0  208 100 0  208 99 0  209 100 0  209 99 0  210 100 0  210 99 0  211 100 0  211 99 0  212 100 0  212 99 0  213 100 0  213 99 0  214 100 0  214 99 0  215 100 0  215 99 0  216 100 0  216 99 0  217 100 0  217 99 0  218 100 0  218 99 0  219 100 0  219 99 0  220 100 0  220 99 0  221 100 0  221 99 0  222 100 0  222 99 0  223 100 0  223 99 0  224 100 0  224 99 0  225 100 0  225 99 0  226 100 0  226 99 0  227 100 0  227 99 0  228 100 0  228 99 0  229 100 0  229 99 0  230 100 0  230 99 0  231 100 0  231 99 0  232 100 0  232 99 0  233 100 0  233 99 0  234 100 0  234 99 0  235 100 0  235 99 0  236 100 0  236 99 0  237 100 0  237 99 0  238 100 0  238 99 0  239 100 0  239 99 0  240 100 0  240 99 0  241 100 0  241 99 0  242 100 0  242 99 0  243 100 0  243 99 0  244 100 0  244 99 0  245 100 0  245 99 0  246 100 0  246 99 0  247 100 0  247 99 0  248 100 0  248 99 0  249 100 0  249 99 0  250 100 0  250 99 0  251 100 0  251 99 0  252 100 0  252 99 0  253 100 0  253 99 0  254 100 0  254 99 0  255 100 0  255 99 0  256 100 0  256 99 0  257 100 0  257 99 0  258 100 0  258 99 0  259 100 0  259 99 0  260 100 0  260 99 0  261 100 0  261 99 0  262 100 0  262 99 0  263 100 0  263 99 0  264 100 0  264 99 0  265 100 0  265 99 0  266 100 0  266 99 0  267 100 0  267 99 0  268 100 0  268 99 0  269 100 0  269 99 0  270 100 0  270 99 0  271 100 0  271 99 0  272 100 0  272 99 0  273 100 0  273 99 0  274 100 0  274 99 0  275 100 0  275 99 0  276 100 0  276 99 0  277 100 0  277 99 0  278 100 0  278 99 0  279 100 0  279 99 0  280 100 0  280 99 0  281 100 0  281 99 0  282 100 0  282 99 0  283 100 0  283 99 0  284 100 0  284 99 0  285 100 0  285 99 0  286 100 0  286 99 0  287 100 0  287 99 0  288 100 0  288 99 0  289 100 0  289 99 0  290 100 0  290 99 0  291 100 0  291 99 0  292 100 0  292 99 0  293 100 0  293 99 0  294 100 0  294 99 0  295 100 0  295 99 0  296 100 0  296 99 0  297 100 0  297 99 0  298 100 0  298 99 0  299 100 0  299 99 0  300 100 0  300 99 0  301 100 0  301 99 0  302 100 0  302 99 0  303 100 0  303 99 0  304 100 0  304 99 0  305 100 0  305 99 0  306 100 0  306 99 0  307 100 0  307 99 0  308 100 0  308 99 0  309 100 0  309 99 0  310.0000000000001 100 0  310.0000000000001 99 0  311 100 0  311 99 0  312 100 0  312 99 0  312.9999999999999 100 0  312.9999999999999 99 0  314 100 0  314 99 0  315 100 0  315 99 0  315.9999999999999 100 0  315.9999999999999 99 0  317 100 0  317 99 0  318 100 0  318 99 0  319 100 0  319 99 0  320 100 0  320 99 0  321 100 0  321 99 0  322 100 0  322 99 0  323 100 0  323 99 0  324 100 0  324 99 0  325 100 0  325 99 0  326 100 0  326 99 0  327 100 0  327 99 0  328 100 0  328 99 0  329 100 0  329 99 0  330 100 0  330 99 0  331 100 0  331 99 0  332 100 0  332 99 0  333.0000000000001 100 0  333.0000000000001 99 0  334 100 0  334 99 0  335 100 0  335 99 0  336.0000000000001 100 0  336.0000000000001 99 0  337 100 0  337 99 0  338 100 0  338 99 0  338.9999999999999 100 0  338.9999999999999 99 0  340 100 0  340 99 0  341 100 0  341 99 0  341.9999999999999 100 0  341.9999999999999 99 0  343 100 0  343 99 0  344 100 0  344 99 0  345 100 0  345 99 0  346 100 0  346 99 0  347 100 0  347 99 0  348 100 0  348 99 0  349 100 0  349 99 0  350 100 0  350 99 0  351 100 0  351 99 0  352 100 0  352 99 0  353 100 0  353 99 0  354 100 0  354 99 0  355 100 0  355 99 0  356 100 0  356 99 0  357 100 0  357 99 0  358 100 0  358 99 0  359.0000000000001 100 0  359.0000000000001 99 0  360 100 0  360 99 0  361 100 0  361 99 0  362.0000000000001 100 0  362.0000000000001 99 0  363 100 0  363 99 0  364 100 0  364 99 0  364.9999999999999 100 0  364.9999999999999 99 0  366 100 0  366 99 0  367 100 0  367 99 0  368 100 0  368 99 0  369 100 0  369 99 0  370 100 0  370 99 0  371 100 0  371 99 0  372 100 0  372 99 0  373 100 0  373 99 0  374 100 0  374 99 0  375 100 0  375 99 0  376 100 0  376 99 0  377 100 0  377 99 0  378 100 0  378 99 0  379 100 0  379 99 0  380 100 0  380 99 0  381 100 0  381 99 0  382 100 0  382 99 0  383 100 0  383 99 0  384 100 0  384 99 0  385.0000000000001 100 0  385.0000000000001 99 0  386 100 0  386 99 0  387 100 0  387 99 0  387.9999999999999 100 0  387.9999999999999 99 0  389 100 0  389 99 0  390 100 0  390 99 0  390.9999999999999 100 0  390.9999999999999 99 0  392 100 0  392 99 0  393 100 0  393 99 0  394 100 0  394 99 0  395 100 0  395 99 0  396 100 0  396 99 0  397 100 0  397 99 0  398 100 0  398 99 0  399 100 0  399 99 0  400 100 0  400 99 0  401 100 0  401 99 0  402 100 0  402 99 0  403 100 0  403 99 0  404 100 0  404 99 0  405 100 0  405 99 0  406 100 0  406 99 0  407 100 0  407 99 0  408.0000000000001 100 0  408.0000000000001 99 0  409 100 0  409 99 0  410 100 0  410 99 0  411.0000000000001 100 0  411.0000000000001 99 0  412 100 0  412 99 0  413 100 0  413 99 0  413.9999999999999 100 0  413.9999999999999 99 0  415 100 0  415 99 0  416 100 0  416 99 0  416.9999999999999 100 0  416.9999999999999 99 0  418 100 0  418 99 0  419 100 0  419 99 0  420 100 0  420 99 0  421 100 0  421 99 0  422 100 0  422 99 0  423 100 0  423 99 0  424 100 0  424 99 0  425 100 0  425 99 0  426 100 0  426 99 0  427 100 0  427 99 0  428 100 0  428 99 0  429 100 0  429 99 0  430 100 0  430 99 0  431 100 0  431 99 0  432 100 0  432 99 0  433 100 0  433 99 0  434.0000000000001 100 0  434.0000000000001 99 0  435 100 0  435 99 0  436 100 0  436 99 0  437.0000000000001 100 0  437.0000000000001 99 0  438 100 0  438 99 0  439 100 0  439 99 0  439.9999999999999 100 0  439.9999999999999 99 0  441 100 0  441 99 0  442 100 0  442 99 0  443 100 0  443 99 0  444 100 0  444 99 0  445 100 0  445 99 0  446 100 0  446 99 0  447 100 0  447 99 0  448 100 0  448 99 0  449 100 0  449 99 0  450 100 0  450 99 0  451 100 0  451 99 0  452 100 0  452 99 0  453 100 0  453 99 0  454 100 0  454 99 0  455 100 0  455 99 0  456 100 0  456 99 0  457 100 0  457 99 0  458 100 0  458 99 0  459 100 0  459 99 0  460.0000000000001 100 0  460.0000000000001 99 0  461 100 0  461 99 0  462 100 0  462 99 0  462.9999999999999 100 0  462.9999999999999 99 0  464 100 0  464 99 0  465 100 0  465 99 0  465.9999999999999 100 0  465.9999999999999 99 0  467 100 0  467 99 0  468 100 0  468 99 0  469 100 0  469 99 0  470 100 0  470 99 0  471 100 0  471 99 0  472 100 0  472 99 0  473 100 0  473 99 0  474 100 0  474 99 0  475 100 0  475 99 0  476 100 0  476 99 0  477 100 0  477 99 0  478 100 0  478 99 0  479 100 0  479 99 0  480 100 0  480 99 0  481 100 0  481 99 0  482 100 0  482 99 0  483.0000000000001 100 0  483.0000000000001 99 0  484 100 0  484 99 0  485 100 0  485 99 0  486.0000000000001 100 0  486.0000000000001 99 0  487 100 0  487 99 0  488 100 0  488 99 0  488.9999999999999 100 0  488.9999999999999 99 0  490 100 0  490 99 0  491 100 0  491 99 0  491.9999999999999 100 0  491.9999999999999 99 0  493 100 0  493 99 0  494 100 0  494 99 0  495 100 0  495 99 0  496 100 0  496 99 0  497 100 0  497 99 0  498 100 0  498 99 0  499 100 0  499 99 0  500 100 0  500 99 0  501 100 0  501 99 0  502 100 0  502 99 0  503 100 0  503 99 0  504 100 0  504 99 0  505 100 0  505 99 0  506 100 0  506 99 0  507 100 0  507 99 0  508 100 0  508 99 0  509.0000000000001 100 0  509.0000000000001 99 0  510 100 0  510 99 0  88 99 0  88 98 0  89 99 0  89 98 0  90 98 0  91 98 0  92 98 0  93 98 0  94 98 0  95 98 0  96 98 0  96.99999999999999 98 0  98 98 0  99 98 0  10
[...]
<PointData  Scalars="f_49"> 
<DataArray  type="Float64"  Name="f_49"  format="ascii">1.4997159168961011e-02  3.1972276833059879e-02  1.6690730157947663e-02  2.6994861670610985e-02  2.5319747386611989e-02  3.2479124551738493e-02  3.2660783301156723e-02  3.6394579454303903e-02  3.9130982760913695e-02  4.0722808263346351e-02  4.4848225868408753e-02  4.4859251374136669e-02  4.9859403720498338e-02  4.8705633402086036e-02  5.4203709299023350e-02  5.2181427624502362e-02  5.7894508288593917e-02  5.5232119761883670e-02  6.0935669072414836e-02  5.7824020605976835e-02  6.3332683980119903e-02  5.9939200350499537e-02  6.5100525205614754e-02  6.1575004147408047e-02  6.6268386597911844e-02  6.2743805331837710e-02  6.6881693503546946e-02  6.3472600254690176e-02  6.7001980855306426e-02  6.3802117804446695e-02  6.6705080186356833e-02  6.3785321732245118e-02  6.6077799133878776e-02  6.3485125592941533e-02  6.5213332611766914e-02  6.2971295604873842e-02  6.4205272554852658e-02  6.2316225146226922e-02  6.3140361747337281e-02  6.1589123519233208e-02  6.2092046832820963e-02  6.0850689646970726e-02  6.1115011836339224e-02  6.0148472370863265e-02  6.0240971974344457e-02  5.9512211767602630e-02  5.9478096324554565e-02  5.8952595474566195e-02  5.8814871393616804e-02  5.8464116240372919e-02  5.8227113100740448e-02  5.8030601689737060e-02  5.7686143348842124e-02  5.7631621792464983e-02  5.7166521205790646e-02  5.7248514996654891e-02  5.6652139552131657e-02  5.6869165598438555e-02  5.6140210819443342e-02  5.6491326945835328e-02  5.5642152297186331e-02  5.6123565020448400e-02  5.5182348871214190e-02  5.5784898462195705e-02  5.4792108128920630e-02  5.5500664352896904e-02  5.4499381767778986e-02  5.5292968295273769e-02  5.4320875949873122e-02  5.5174359555533931e-02  5.4259851739568557e-02  5.5146777237891562e-02  5.4308394785801108e-02  5.5203840916614150e-02  5.4451583550428520e-02  5.5334215826621506e-02  5.4671605711615209e-02  5.5524661945948017e-02  5.4950905016458128e-02  5.5762241967533627e-02  5.5274192540990814e-02  5.6035678685425173e-02  5.5629528245995596e-02  5.6336063687309694e-02  5.6008782116462458e-02  5.6657153872849073e-02  5.6407744349113831e-02  5.6995448905635168e-02  5.6826054130770687e-02  5.7350172098342519e-02  5.7266999401209440e-02  5.7723197827105353e-02  5.7737128689305806e-02  5.8118888193046329e-02  5.8245533590025891e-02  5.8543727797933348e-02  5.8802628610645433e-02  5.9005595423995555e-02  5.9418294506765258e-02  5.9512525551383741e-02  6.0099371627381888e-02  6.0070910927054730e-02  6.0846693782669409e-02  6.0683279124589345e-02  6.1652092740962686e-02  6.1345985240068512e-02  6.2496092551283772e-02  6.2047395831303212e-02  6.3347195433363757e-02  6.2767154778286496e-02  6.4164178759315224e-02  6.3476636350908666e-02  6.4902376974601869e-02  6.4141622260135922e-02  6.5528154442937525e-02  6.4725298232688314e-02  6.6047462177433819e-02  6.5150432789195606e-02  6.6092812027735037e-02  6.5323625337214808e-02  6.5347340317005995e-02  6.4463406153398364e-02  6.5309165227798283e-02  6.3405732602129686e-02  6.5571948846001954e-02  6.3165852183230980e-02  6.5063148738896848e-02  6.3023598331958905e-02  6.4449592068225522e-02  6.2765095116477709e-02  6.3777216375243251e-02  6.2413994626878133e-02  6.3116160769927862e-02  6.2045630765916862e-02  6.2510980878827657e-02  6.1701524807678959e-02  6.1993893522427977e-02  6.1415857030740102e-02  6.1588187645942129e-02  6.1212997536318481e-02  6.1309608843148192e-02  6.1109757681984428e-02  6.1167695407844461e-02  6.1116810362972132e-02  6.1166934892630205e-02  6.1239892290601151e-02  6.1307831820116690e-02  6.1480862125631287e-02  6.1587863573885564e-02  6.1838612127132778e-02  6.2002304550671607e-02  6.2309838682098787e-02  6.2544931355103459e-02  6.2889702988775886e-02  6.3208590511535045e-02  6.3572370833202121e-02  6.3985581850925954e-02  6.4351370632789687e-02  6.4867897966115862e-02  6.5219831047601706e-02  6.5847298942208435e-02  6.6170580672428356e-02  6.6915237621052934e-02  6.7196094038433643e-02  6.8062753588282357e-02  6.8288429801259681e-02  6.9280497997438267e-02  6.9439325411915206e-02  7.0558718758392203e-02  7.0640246918283647e-02  7.1887089365390136e-02  7.1882211956662251e-02  7.3254652686679980e-02  7.3155748124380443e-02  7.4650162035721807e-02  7.4451237615216007e-02  7.6062662131744105e-02  7.5759410390402668e-02  7.7482071267236746e-02  7.7071795522706557e-02  7.8899150516160726e-02  7.8380607208067610e-02  8.0304768784409300e-02  7.9677920587285372e-02  8.1689363754378172e-02  8.0955230986625312e-02  8.3043360739026531e-02  8.2204000986375564e-02  8.4358423606220936e-02  8.3416875749397018e-02  8.5628862378007889e-02  8.4588926285902546e-02  8.6852221291935622e-02  8.5718089333400679e-02  8.8028746772305738e-02  8.6804726561903231e-02  8.9158973635486582e-02  8.7849630908732407e-02  9.0239842406762291e-02  8.8850504788931348e-02  9.1261725305679137e-02  8.9799551415497073e-02  9.2208170375403797e-02  9.0683523281809342e-02  9.3058461211810203e-02  9.1485935322377018e-02  9.3791959042479348e-02  9.2190472533038054e-02  9.4392944575687684e-02  9.2784654063193903e-02  9.4854773182683857e-02  9.3262934548826684e-02  9.5182613398497096e-02  9.3628821517729610e-02  9.5393884600902076e-02  9.3895241507822608e-02  9.5516755659593874e-02  9.4083635927765419e-02  9.5585226420360631e-02  9.4220373915754899e-02  9.5631321780967754e-02  9.4329873559401742e-02  9.5678777439737295e-02  9.4429621681275056e-02  9.5740951184268314e-02  9.4529020303545638e-02  9.5822489853590098e-02  9.4631068791247969e-02  9.5922807700788149e-02  9.4735171674433016e-02  9.6039531082020485e-02  9.4839737323018286e-02  9.6170772292597753e-02  9.4943826372042794e-02  9.6315803861483668e-02  9.5047586675511830e-02  9.6474215718652015e-02  9.5151537061278976e-02  9.6643966142396703e-02  9.5254992118503884e-02  9.6818931642453365e-02  9.5354078604486345e-02  9.6986690897657532e-02  9.5439923599910076e-02  9.7127285540140912e-02  9.5497609968904745e-02  9.7213683890010658e-02  9.5506387011136354e-02  9.7215374682258646e-02  9.5442559400757951e-02  9.7104688114242027e-02  9.5284916262436625e-02  9.6862839199893802e-02  9.5019512032351677e-02  9.6483107315893116e-02  9.4641825113087066e-02  9.5970585547730497e-02  9.4156282582440340e-02  9.5339422044879218e-02  9.3574072658258234e-02  9.4608944551091423e-02  9.2910270539571765e-02  9.3799895820860069e-02  9.2181095627355519e-02  9.2931622028076588e-02  9.1401857602923103e-02  9.2020700916363676e-02  9.0585906440443495e-02  9.1081525882715370e-02  8.9745121863395616e-02  9.0128524282500885e-02  8.8891858034692323e-02  8.9178467437427605e-02  8.8040836124411742e-02  8.8251395105892305e-02  8.7209755435228520e-02  8.7369663059927119e-02  8.6418353125757755e-02  8.6555599421964127e-02  8.5686391421753882e-02  8.5828660411586419e-02  8.5031270857901423e-02  8.5203222162390665e-02  8.4466160498175472e-02  8.4687873680989609e-02  8.3999464459731887e-02  8.4286181155237130e-02  8.3635493890175799e-02  8.3998260937510061e-02  8.3375718592054227e-02  8.3822443121422327e-02  8.3220028051627717e-02  8.3756574188680696e-02  8.3167690412352238e-02  8.3798806829992675e-02  8.3217928084221848e-02  8.3947924029243101e-02  8.3370161287047398e-02  8.4203330484599742e-02  8.3624019812992570e-02  8.4564853661240100e-02  8.3979222920401331e-02  8.5032468937365546e-02  8.4435405695355251e-02  8.5606025815656392e-02  8.4991944459970922e-02  8.6285018772608232e-02  8.5647811496536427e-02  8.7068422287686201e-02  8.6401473338169971e-02  8.7954594817567677e-02  8.7250837429124761e-02  8.8941245354257667e-02  8.8193243083610956e-02  9.0025451750628621e-02  8.9225488491656069e-02  9.1203724717499851e-02  9.0343893463172537e-02  9.2472099473073666e-02  9.1544383861079826e-02  9.3826234110666679e-02  9.2822579038042863e-02  9.5261488921496523e-02  9.4173861561364133e-02  9.6772983340675203e-02  9.5593424117795769e-02  9.8355657168648622e-02  9.7076324981034592e-02  1.0000436219608415e-01  9.8617578086647714e-02  1.0171393149889091e-01  1.0021222050568750e-01  1.0347916607139961e-01  1.0185529198544317e-01  1.0529474641029940e-01  1.0354175520194560e-01  1.0715513897048928e-01  1.0526643500081395e-01  1.0905446286404130e-01  1.0702392723342770e-01  1.1098630491733079e-01  1.0880842685965758e-01  1.1294364100655141e-01  1.1061365905238860e-01  1.1491902368828474e-01  1.1243306099704165e-01  1.1690497209120573e-01  1.1426011918279039e-01  1.1889439687364317e-01  1.1608871855622585e-01  1.2088072618176005e-01  1.1791321963922216e-01  1.2285762340053137e-01  1.1972813743529047e-01  1.2481868607923961e-01  1.2152788463915458e-01  1.2675751735033150e-01  1.2330690064339032e-01  1.2866821706510062e-01  1.2506012046159856e-01  1.3054594355955348e-01  1.2678341850842306e-01  1.3238726880586460e-01  1.2847384859388156e-01  1.3418984046100191e-01  1.3012929468905779e-01  1.3595135712105433e-01  1.3174744891768794e-01  1.3766876183636415e-01  1.3332516209313255e-01  1.3933840190448352e-01  1.3485876723382717e-01  1.4095705473215595e-01  1.3634510688010767e-01  1.4252318327723720e-01  1.3778266246730175e-01  1.4403749855615042e-01  1.3917199657660714e-01  1.4550251480863857e-01  1.4051538958193088e-01  1.4692038560886769e-01  1.4181506001550800e-01  1.4828936936728634e-01  1.4306992824061340e-01  1.4960114051016063e-01  1.4427338860116981e-01  1.5084064249475937e-01  1.4541338391307054e-01  1.5198857147148423e-01  1.4647453040974426e-01  1.5302551239029738e-01  1.4744138240018245e-01  1.5393651091920188e-01  1.4830193822203272e-01  1.5471495529035184e-01  1.4905059136454393e-01  1.5536506707430117e-01  1.4969009808653791e-01  1.5590216564464895e-01  1.5023182492362513e-01  1.5635102192885927e-01  1.5069470331190241e-01  1.5674094309763326e-01  1.5110162576932776e-01  1.5709805696770240e-01  1.5147268965946603e-01  1.5743897645083016e-01  1.5182022478375512e-01  1.5776852188635043e-01  1.5214748741866937e-01  1.5808117888476528e-01  1.5245013790832679e-01  1.5836459189104948e-01  1.5271897054972672e-01  1.5860349357327480e-01  1.5294275579771846e-01  1.5878311245173854e-01  1.5311061903184275e-01  1.5889168921108532e-01  1.5321378429286411e-01  1.5892207725112181e-01  1.5324671410596796e-01  1.5887252930001128e-01  1.5320773091087053e-01  1.5874676638940410e-01  1.5309917665221534e-01  1.5855337324530916e-01  1.5292711202261206e-01  1.5830452817370333e-01  1.5270051775744908e-01  1.5801409268884156e-01  1.5242996682350016e-01  1.5769516067192602e-01  1.5212580002180690e-01  1.5735729589608488e-01  1.5179596186522831e-01  1.5700382596384616e-01  1.5144378611920414e-01  1.5662972602700168e-01  1.5106618116034284e-01  1.5622065604883181e-01  1.5065268774971030e-01  1.5575381176483921e-01  1.5018587238585063e-01  1.5520189136670731e-01  1.4964441510936183e-01  1.5453967843338212e-01  1.4900869505154046e-01  1.5375026732663072e-01  1.4826576393189109e-01  1.5282839556968092e-01  1.4741172535897748e-01  1.5178028687804018e-01  1.4645141346527604e-01  1.5062083532373749e-01  1.4539619223665218e-01  1.4936943121998697e-01  1.4426083846577756e-01  1.4804560119046301e-01  1.4306029939426571e-01  1.4666532864309720e-01  1.4180691651901461e-01  1.4523861826454992e-01  1.4050853062898852e-01  1.4376867194054016e-01  1.3916773816923997e-01  1.4225318797965156e-01  1.3778285634695597e-01  1.4068747482159066e-01  1.3635051993509587e-01  1.3906781393922765e-01  1.3486836747630102e-01  1.3739355151961230e-01  1.3333655516135468e-01  1.3566738850419124e-01  1.3175782070245678e-01  1.3389426311769695e-01  1.3013651497039530e-01  1.3207965056597493e-01  1.2847725865944473e-01  1.3022811483631411e-01  1.2678382311879866e-01  1.2834286149056862e-01  1.2505883159739453e-01  1.2642645832396521e-01  1.2330446885923700e-01  1.2448206424982171e-01  1.2152353780020368e-01  1.2251431684052259e-01  1.1972013812071454e-01  1.2052945109916249e-01  1.1789968685212342e-01  1.1853474878055575e-01  1.1606842352644237e-01  1.1653772795825990e-01  1.1423273956691790e-01  1.1454559360255917e-01  1.1239875410355718e-01  1.1256521874307339e-01  1.1057237279253786e-01  1.1060345755292365e-01  1.0875959879857407e-01  1.0866739349276908e-01  1.0696673424335500e-01  1.0676428452858042e-01  1.0520029869563897e-01  1.0490124184565659e-01  1.0346672577058086e-01  1.0308489628568884e-01  1.0177206912914788e-01  1.0132128785077930e-01  1.0012193067143366e-01  9.9615990146103062e-02  9.8521587072866582e-02  9.7974320181323626e-02  9.6976161031949851e-02  9.6401511062114004e-02  9.5490742030827316e-02  9.4902809397119786e-02  9.4070452839849272e-02  9.3483483839290005e-02  9.2720453959180507e-02  9.2148733094426033e-02  9.1445866077340870e-02  9.0903519662802038e-02  9.0251628368405612e-02  8.9752391225673550e-02  8.9142351080890789e-02  8.8699339217466408e-02  8.8122201672930375e-02  8.7747705990129973e-02  8.7194827628384791e-02  8.6900123357298326e-02  8.6363295874040583e-02  8.6158467164167057e-02  8.5630033832879440e-02  8.5523835891080771e-02  8.4996781653270681e-02  8.4996578848669194e-02  8.4464580022433428e-02  8.4576398957295490e-02  8.4033815800800549e-02  8.4262541391360954e-02  8.3704337316840349e-02  8.4054058811723911e-02  8.3475636725346400e-02  8.3950119667123430e-02  8.3347078358747634e-02  8.3950300273049588e-02  8.3318129521959383e-02  8.4054780772207807e-02  8.3388529578135140e-02  8.4264353234263831e-02  8.3558317424760525e-02  8.4580161682820038e-02  8.3827644357258146e-02  8.5003113884491804e-02  8.4196311986452887e-02  8.5532977171556598e-02  8.4663047411181844e-02  8.6167189355220178e-02  8.5224532178517165e-02  8.6899624796688196e-02  8.5874429721236809e-02  8.7719328259330098e-02  8.6602381386492885e-02  8.8609752590213461e-02  8.7393344642410498e-02  8.9549490249847166e-02  8.8228405557620126e-02  9.0514568794922340e-02  8.9086933498866663e-02  9.1481420308120925e-02  8.9949130399868585e-02  9.2429196636292926e-02  9.0797815424097039e-02  9.3340823503405390e-02  9.1619138951354304e-02  9.4201990784266859e-02  9.2401609180088787e-02  9.4998468532164593e-02  9.3133491050058914e-02  9.5713964246797165e-02  9.3801019254883572e-02  9.6330214895027119e-02  9.4388691727263524e-02  9.6829386780291182e-02  9.4881361693081090e-02  9.7197816846666910e-02  9.5267232804856661e-02  9.7429773191106087e-02  9.5540751245113506e-02  9.7530235612307531e-02  9.5704765607553380e-02  9.7515606389631457e-02  9.5771073199243301e-02  9.7412546991410970e-02  9.5759720674164925e-02  9.7253450181938456e-02  9.5695690594157348e-02  9.7069025936915326e-02  9.5602327622800978e-02  9.6882251161773791e-02  9.5496527939140929e-02  9.6706359550451620e-02  9.5387598037082688e-02  9.6546440195193650e-02  9.5278852512860085e-02  9.6402771417611083e-02  9.5170303935451978e-02  9.6274100696408960e-02  9.5061146918865511e-02  9.6159761919163145e-02  9.4951306662613852e-02  9.6060208620883714e-02  9.4841784847240457e-02  9.5976043792042498e-02  9.4733856912299547e-02  9.5905955783193567e-02  9.4627407686022624e-02  9.5844171807837941e-02  9.4518859522723694e-02  9.5778178735423547e-02  9.4399284941410144e-02  9.5687480148211754e-02  9.4253324228665336e-02  9.5544136056178453e-02  9.4059414162499327e-02  9.5316551624959153e-02  9.3792787577744577e-02  9.4976109972807907e-02  9.3431140531540946e-02  9.4503541182370976e-02  9.2959685484271554e-02  9.3892309311838409e-02  9.2373505159831532e-02  9.3148353407754778e-02  9.1677118142098918e-02  9.2287051469605558e-02  9.0882126955205644e-02  9.1328784588075126e-02  9.0003945663048937e-02  9.0294344299575807e-02  8.9058420039003008e-02  8.9201092680618141e-02  8.8058946299999469e-02  8.8060470175260877e-02  8.7014528444510464e-02  8.6877209781560050e-02  8.5929044220740797e-02  8.5650789948932646e-02  8.4802296761407367e-02  8.4378818014439846e-02  8.3632812641351903e-02  8.3060684284444214e-02  8.2420755765102036e-02  8.1699844138877653e-02  8.1169593921622471e-02  8.0304133556936524e-02  7.9886195866561802e-02  7.8884514700611350e-02  7.8579776533258275e-02  7.7453122897381516e-02  7.7260374137860091e-02  7.6021497714858000e-02  7.5937485663121390e-02  7.4599814199010142e-02  7.4619507160276002e-02  7.3197337760104578e-02  7.3314235408095382e-02  7.1823443831961320e-02  7.2029764123319864e-02  7.0488328738096476e-02  7.0775016847081998e-02  6.9202993403235089e-02  6.9559638523796555e-02  6.7978635982352806e-02  6.8393413681763285e-02  6.6825987603190418e-02  6.7285681913103759e-02  6.5755037003639466e-02  6.6245152856689943e-02  6.4775131156253982e-02  6.5280028734090348e-02  6.3895166242248461e-02  6.4398140194729045e-02  6.3123699378940398e-02  6.3606976054387213e-02  6.2468979405932296e-02  6.2913669473081177e-02  6.1938877378434939e-02  6.2324921152905166e-02  6.1540662184403655e-02  6.1846792134316791e-02  6.1280584603486656e-02  6.1484340790141145e-02  6.1163241000459882e-02  6.1241076537151468e-02  6.1190713062142223e-02  6.1118219030790899e-02  6.1361519311851437e-02  6.1113793756555970e-02  6.1669435169198608e-02  6.1221607388633525e-02  6.2102236933069911e-02  6.1430154172168419e-02  6.2640415935638752e-02  6.1721538969551029e-02  6.3255887934875563e-02  6.2070584948283221e-02  6.3910338278702905e-02  6.2444696362780758e-02  6.4554237941477133e-02  6.2805860520961848e-02  6.5124345953028850e-02  6.3116174006222867e-02  6.5509537192557477e-02  6.3387567457646857e-02  6.6049599056485053e-02  6.3677137355534263e-02  6.6989285046829675e-02  6.4714578836669673e-02  6.6802185608695802e-02  6.5621746214814106e-02  6.5899892406758073e-02  6.5410909377749307e-02  6.5459762292711582e-02  6.4881809602979360e-02  6.4860149379835086e-02  6.4264893680085866e-02  6.4146453469027559e-02  6.3609783332655406e-02  6.3345363832806881e-02  6.2912518686831578e-02  6.2505760206444660e-02  6.2204211407668325e-02  6.1674503452669900e-02  6.1512705522375623e-02  6.0885661728095015e-02  6.0859140293454371e-02  6.0157998504545493e-02  6.0254882486661478e-02  5.9496975039975142e-02  5.9702664664864853e-02  5.8898825863134122e-02  5.9199229425603281e-02  5.8354705490190846e-02  5.8738034745598314e-02  5.7854003659806988e-02  5.8311423463055290e-02  5.7386638968918310e-02  5.7912128197532449e-02  5.6944495239642644e-02  5.7534222344561702e-02  5.6522273056347994e-02  5.7173696279261804e-02  5.6118001902642579e-02  5.6828824132543962e-02  5.5733370773803706e-02  5.6500435304361586e-02  5.5373925315531931e-02  5.6192134285423377e-02  5.5049070035714437e-02  5.5910432077925572e-02  5.4771730128215144e-02  5.5664671343708449e-02  5.4557493890730148e-02  5.5466565362387532e-02  5.4423093490072773e-02  5.5329172239762060e-02  5.4384199410939540e-02  5.5265217199698548e-02  5.4452693487033688e-02  5.5284849207385946e-02  5.4633800390232634e-02  5.5393140150979202e-02  5.4923679967547032e-02  5.5587880153947319e-02  5.5308212392070365e-02  5.5858350856944711e-02  5.5763715916752402e-02  5.6185537715079184e-02  5.6261973046428340e-02  5.6546271824392147e-02  5.6778939112445137e-02  5.6921029542106066e-02  5.7302470637391273e-02  5.7300044864140948e-02  5.7835593203815414e-02  5.7685307032809233e-02  5.8394907968059503e-02  5.8088920520616413e-02  5.9005498195796285e-02  5.8529113288801171e-02  5.9693990804736988e-02  5.9024980974209745e-02  6.0481110348758783e-02  5.9590782568191669e-02  6.1374674489970062e-02  6.0230458445515216e-02  6.2363875915187134e-02  6.0933159464005557e-02  6.3415496044771730e-02  6.1670352592450746e-02  6.4473598475921975e-02  6.2396001446485633e-02  6.5463233706803958e-02  6.3050388617828468e-02  6.6296470529644796e-02  6.3565260358308423e-02  6.6879302579654493e-02  6.3869101404552098e-02  6.7118689197845735e-02  6.3892377299076680e-02  6.6928873663471097e-02  6.3572120445305524e-02  6.6236193248286307e-02  6.2855413072598801e-02  6.4982006674208947e-02  6.1701777387645373e-02  6.3123706319158451e-02  6.0084765414967573e-02  6.0633856283547560e-02  5.7993149682464849e-02  5.7497358317141298e-02  5.5432235048750160e-02  5.3706619944033071e-02  5.2426000626320975e-02  4.9254384488957872e-02  4.9021038477643664e