<?xml version="1.0"?>
<VTKFile type="UnstructuredGrid"  version="0.1"  >
<UnstructuredGrid>
<Piece  NumberOfPoints="27613" NumberOfCells="50972">
<Points>
<DataArray  type="Float64"  NumberOfComponents="3"  format="ascii">90 100 0  90 99 0  91 100 0  91 99 0  92 100 0  92 99 0  93 100 0  93 99 0  94 100 0  94 99 0  95 100 0  95 99 0  96 100 0  96 99 0  96.99999999999999 100 0  96.99999999999999 99 0  98 100 0  98 99 0  99 100 0  99 99 0  100 100 0  100 99 0  101 100 0  101 99 0  102 100 0  102 99 0  103 100 0  103 99 0  104 100 0  104 99 0  105 100 0  105 99 0  106 100 0  106 99 0  107 100 0  107 99 0  108 100 0  108 99 0  109 100 0  109 99 0  110 100 0  110 99 0  111 100 0  111 99 0  112 100 0  112 99 0  113 100 0  113 99 0  114 100 0  114 99 0  115 100 0  115 99 0  116 100 0  116 99 0  117 100 0  117 99 0  118 100 0  118 99 0  119 100 0  119 99 0  120 100 0  120 99 0  121 100 0  121 99 0  122 100 0  122 99 0  123 100 0  123 99 0  124 100 0  124 99 0  125 100 0  125 99 0  126 100 0  126 99 0  127 100 0  127 99 0  128 100 0  128 99 0  129 100 0  129 99 0  130 100 0  130 99 0  131 100 0  131 99 0  132 100 0  132 99 0  133 100 0  133 99 0  134 100 0  134 99 0  135 100 0  135 99 0  136 100 0  136 99 0  137 100 0  137 99 0  138 100 0  138 99 0  139 100 0  139 99 0  140 100 0  140 99 0  141 100 0  141 99 0  142 100 0  142 99 0  143 100 0  143 99 0  144 100 0  144 99 0  145 100 0  145 99 0  146 100 0  146 99 0  147 100 0  147 99 0  148 100 0  148 99 0  149 100 0  149 99 0  150 100 0  150 99 0  151 100 0  151 99 0  152 100 0  152 99 0  153 100 0  153 99 0  154 100 0  154 99 0  155 100 0  155 99 0  156 100 0  156 99 0  157 100 0  157 99 0  158 100 0  158 99 0  159 100 0  159 99 0  160 100 0  160 99 0  161 100 0  161 99 0  162 100 0  162 99 0  163 100 0  163 99 0  164 100 0  164 99 0  165 100 0  165 99 0  166 100 0  166 99 0  167 100 0  167 99 0  168 100 0  168 99 0  169 100 0  169 99 0  170 100 0  170 99 0  171 100 0  171 99 0  172 100 0  172 99 0  173 100 0  173 99 0  174 100 0  174 99 0  175 100 0  175 99 0  176 100 0  176 99 0  177 100 0  177 99 0  178 100 0  178 99 0  179 100 0  179 99 0  180 100 0  180 99 0  181 100 0  181 99 0  182 100 0  182 99 0  183 100 0  183 99 0  184 100 0  184 99 0  185 100 0  185 99 0  186 100 0  186 99 0  187 100 0  187 99 0  188 100 0  188 99 0  189 100 0  189 99 0  190 100 0  190 99 0  191 100 0  191 99 0  192 100 0  192 99 0  193 100 0  193 99 0  194 100 0  194 99 0  195 100 0  195 99 0  196 100 0  196 99 0  197 100 0  197 99 0  198 100 0  198 99 0  199 100 0  199 99 0  200 100 0  200 99 0  201 100 0  201 99 0  202 100 0  202 99 0  203 100 0  203 99 0  204 100 0  204 99 0  205 100 0  205 99 0  206 100 0  206 99 0  207 100 0  207 99 0  208 100 0  208 99 0  209 100 0  209 99 0  210 100 0  210 99 0  211 100 0  211 99 0  212 100 0  212 99 0  213 100 0  213 99 0  214 100 0  214 99 0  215 100 0  215 99 0  216 100 0  216 99 0  217 100 0  217 99 0  218 100 0  218 99 0  219 100 0  219 99 0  220 100 0  220 99 0  221 100 0  221 99 0  222 100 0  222 99 0  223 100 0  223 99 0  224 100 0  224 99 0  225 100 0  225 99 0  226 100 0  226 99 0  227 100 0  227 99 0  228 100 0  228 99 0  229 100 0  229 99 0  230 100 0  230 99 0  231 100 0  231 99 0  232 100 0  232 99 0  233 100 0  233 99 0  234 100 0  234 99 0  235 100 0  235 99 0  236 100 0  236 99 0  237 100 0  237 99 0  238 100 0  238 99 0  239 100 0  239 99 0  240 100 0  240 99 0  241 100 0  241 99 0  242 100 0  242 99 0  243 100 0  243 99 0  244 100 0  244 99 0  245 100 0  245 99 0  246 100 0  246 99 0  247 100 0  247 99 0  248 100 0  248 99 0  249 100 0  249 99 0  250 100 0  250 99 0  251 100 0  251 99 0  252 100 0  252 99 0  253 100 0  253 99 0  254 100 0  254 99 0  255 100 0  255 99 0  256 100 0  256 99 0  257 100 0  257 99 0  258 100 0  258 99 0  259 100 0  259 99 0  260 100 0  260 99 0  261 100 0  261 99 0  262 100 0  262 99 0  263 100 0  263 99 0  264 100 0  264 99 0  265 100 0  265 99 0  266 100 0  266 99 0  267 100 0  267 99 0  268 100 0  268 99 0  269 100 0  269 99 0  270 100 0  270 99 0  271 100 0  271 99 0  272 100 0  272 99 0  273 100 0  273 99 0  274 100 0  274 99 0  275 100 0  275 99 0  276 100 0  276 99 0  277 100 0  277 99 0  278 100 0  278 99 0  279 100 0  279 99 0  280 100 0  280 99 0  281 100 0  281 99 0  282 100 0  282 99 0  283 100 0  283 99 0  284 100 0  284 99 0  285 100 0  285 99 0  286 100 0  286 99 0  287 100 0  287 99 0  288 100 0  288 99 0  289 100 0  289 99 0  290 100 0  290 99 0  291 100 0  291 99 0  292 100 0  292 99 0  293 100 0  293 99 0  294 100 0  294 99 0  295 100 0  295 99 0  296 100 0  296 99 0  297 100 0  297 99 0  298 100 0  298 99 0  299 100 0  299 99 0  300 100 0  300 99 0  301 100 0  301 99 0  302 100 0  302 99 0  303 100 0  303 99 0  304 100 0  304 99 0  305 100 0  305 99 0  306 100 0  306 99 0  307 100 0  307 99 0  308 100 0  308 99 0  309 100 0  309 99 0  310.0000000000001 100 0  310.0000000000001 99 0  311 100 0  311 99 0  312 100 0  312 99 0  312.9999999999999 100 0  312.9999999999999 99 0  314 100 0  314 99 0  315 100 0  315 99 0  315.9999999999999 100 0  315.9999999999999 99 0  317 100 0  317 99 0  318 100 0  318 99 0  319 100 0  319 99 0  320 100 0  320 99 0  321 100 0  321 99 0  322 100 0  322 99 0  323 100 0  323 99 0  324 100 0  324 99 0  325 100 0  325 99 0  326 100 0  326 99 0  327 100 0  327 99 0  328 100 0  328 99 0  329 100 0  329 99 0  330 100 0  330 99 0  331 100 0  331 99 0  332 100 0  332 99 0  333.0000000000001 100 0  333.0000000000001 99 0  334 100 0  334 99 0  335 100 0  335 99 0  336.0000000000001 100 0  336.0000000000001 99 0  337 100 0  337 99 0  338 100 0  338 99 0  338.9999999999999 100 0  338.9999999999999 99 0  340 100 0  340 99 0  341 100 0  341 99 0  341.9999999999999 100 0  341.9999999999999 99 0  343 100 0  343 99 0  344 100 0  344 99 0  345 100 0  345 99 0  346 100 0  346 99 0  347 100 0  347 99 0  348 100 0  348 99 0  349 100 0  349 99 0  350 100 0  350 99 0  351 100 0  351 99 0  352 100 0  352 99 0  353 100 0  353 99 0  354 100 0  354 99 0  355 100 0  355 99 0  356 100 0  356 99 0  357 100 0  357 99 0  358 100 0  358 99 0  359.0000000000001 100 0  359.0000000000001 99 0  360 100 0  360 99 0  361 100 0  361 99 0  362.0000000000001 100 0  362.0000000000001 99 0  363 100 0  363 99 0  364 100 0  364 99 0  364.9999999999999 100 0  364.9999999999999 99 0  366 100 0  366 99 0  367 100 0  367 99 0  368 100 0  368 99 0  369 100 0  369 99 0  370 100 0  370 99 0  371 100 0  371 99 0  372 100 0  372 99 0  373 100 0  373 99 0  374 100 0  374 99 0  375 100 0  375 99 0  376 100 0  376 99 0  377 100 0  377 99 0  378 100 0  378 99 0  379 100 0  379 99 0  380 100 0  380 99 0  381 100 0  381 99 0  382 100 0  382 99 0  383 100 0  383 99 0  384 100 0  384 99 0  385.0000000000001 100 0  385.0000000000001 99 0  386 100 0  386 99 0  387 100 0  387 99 0  387.9999999999999 100 0  387.9999999999999 99 0  389 100 0  389 99 0  390 100 0  390 99 0  390.9999999999999 100 0  390.9999999999999 99 0  392 100 0  392 99 0  393 100 0  393 99 0  394 100 0  394 99 0  395 100 0  395 99 0  396 100 0  396 99 0  397 100 0  397 99 0  398 100 0  398 99 0  399 100 0  399 99 0  400 100 0  400 99 0  401 100 0  401 99 0  402 100 0  402 99 0  403 100 0  403 99 0  404 100 0  404 99 0  405 100 0  405 99 0  406 100 0  406 99 0  407 100 0  407 99 0  408.0000000000001 100 0  408.0000000000001 99 0  409 100 0  409 99 0  410 100 0  410 99 0  411.0000000000001 100 0  411.0000000000001 99 0  412 100 0  412 99 0  413 100 0  413 99 0  413.9999999999999 100 0  413.9999999999999 99 0  415 100 0  415 99 0  416 100 0  416 99 0  416.9999999999999 100 0  416.9999999999999 99 0  418 100 0  418 99 0  419 100 0  419 99 0  420 100 0  420 99 0  421 100 0  421 99 0  422 100 0  422 99 0  423 100 0  423 99 0  424 100 0  424 99 0  425 100 0  425 99 0  426 100 0  426 99 0  427 100 0  427 99 0  428 100 0  428 99 0  429 100 0  429 99 0  430 100 0  430 99 0  431 100 0  431 99 0  432 100 0  432 99 0  433 100 0  433 99 0  434.0000000000001 100 0  434.0000000000001 99 0  435 100 0  435 99 0  436 100 0  436 99 0  437.0000000000001 100 0  437.0000000000001 99 0  438 100 0  438 99 0  439 100 0  439 99 0  439.9999999999999 100 0  439.9999999999999 99 0  441 100 0  441 99 0  442 100 0  442 99 0  443 100 0  443 99 0  444 100 0  444 99 0  445 100 0  445 99 0  446 100 0  446 99 0  447 100 0  447 99 0  448 100 0  448 99 0  449 100 0  449 99 0  450 100 0  450 99 0  451 100 0  451 99 0  452 100 0  452 99 0  453 100 0  453 99 0  454 100 0  454 99 0  455 100 0  455 99 0  456 100 0  456 99 0  457 100 0  457 99 0  458 100 0  458 99 0  459 100 0  459 99 0  460.0000000000001 100 0  460.0000000000001 99 0  461 100 0  461 99 0  462 100 0  462 99 0  462.9999999999999 100 0  462.9999999999999 99 0  464 100 0  464 99 0  465 100 0  465 99 0  465.9999999999999 100 0  465.9999999999999 99 0  467 100 0  467 99 0  468 100 0  468 99 0  469 100 0  469 99 0  470 100 0  470 99 0  471 100 0  471 99 0  472 100 0  472 99 0  473 100 0  473 99 0  474 100 0  474 99 0  475 100 0  475 99 0  476 100 0  476 99 0  477 100 0  477 99 0  478 100 0  478 99 0  479 100 0  479 99 0  480 100 0  480 99 0  481 100 0  481 99 0  482 100 0  482 99 0  483.0000000000001 100 0  483.0000000000001 99 0  484 100 0  484 99 0  485 100 0  485 99 0  486.0000000000001 100 0  486.0000000000001 99 0  487 100 0  487 99 0  488 100 0  488 99 0  488.9999999999999 100 0  488.9999999999999 99 0  490 100 0  490 99 0  491 100 0  491 99 0  491.9999999999999 100 0  491.9999999999999 99 0  493 100 0  493 99 0  494 100 0  494 99 0  495 100 0  495 99 0  496 100 0  496 99 0  497 100 0  497 99 0  498 100 0  498 99 0  499 100 0  499 99 0  500 100 0  500 99 0  501 100 0  501 99 0  502 100 0  502 99 0  503 100 0  503 99 0  504 100 0  504 99 0  505 100 0  505 99 0  506 100 0  506 99 0  507 100 0  507 99 0  508 100 0  508 99 0  509.0000000000001 100 0  509.0000000000001 99 0  510 100 0  510 99 0  88 99 0  88 98 0  89 99 0  89 98 0  90 98 0  91 98 0  92 98 0  93 98 0  94 98 0  95 98 0  96 98 0  96.99999999999999 98 0  98 98 0  99 98 0  10
[...]
<PointData  Vectors="f_10"> 
<DataArray  type="Float64"  Name="f_10"  NumberOfComponents="3" format="ascii">7.2658550814209732e+00 -1.0796451867133968e+01 0.0000000000000000e+00  7.1379242241045704e+00 -1.0799001801803195e+01 0.0000000000000000e+00  7.2618612255374000e+00 -1.0933096220136756e+01 0.0000000000000000e+00  7.1292713749396714e+00 -1.0936222193966891e+01 0.0000000000000000e+00  7.2540688990517355e+00 -1.1071884383279460e+01 0.0000000000000000e+00  7.1189405070951963e+00 -1.1076227089972512e+01 0.0000000000000000e+00  7.2430713337922867e+00 -1.1211814249720815e+01 0.0000000000000000e+00  7.1066006168228126e+00 -1.1217259792428770e+01 0.0000000000000000e+00  7.2293034044131019e+00 -1.1352066180116603e+01 0.0000000000000000e+00  7.0923156390627513e+00 -1.1358494087432897e+01 0.0000000000000000e+00  7.2131199011462153e+00 -1.1492055729734783e+01 0.0000000000000000e+00  7.0762098072089179e+00 -1.1499359060768551e+01 0.0000000000000000e+00  7.1948233256968983e+00 -1.1631340448567490e+01 0.0000000000000000e+00  7.0584338844089638e+00 -1.1639420448426131e+01 0.0000000000000000e+00  7.1746871029766508e+00 -1.1769570804245356e+01 0.0000000000000000e+00  7.0391550862481829e+00 -1.1778331833509409e+01 0.0000000000000000e+00  7.1529715140821644e+00 -1.1906468554378874e+01 0.0000000000000000e+00  7.0185527446009237e+00 -1.1915815067345083e+01 0.0000000000000000e+00  7.1299322384740371e+00 -1.2041818736357436e+01 0.0000000000000000e+00  6.9968151786509756e+00 -1.2051654253462901e+01 0.0000000000000000e+00  7.1058228977519473e+00 -1.2175467535933667e+01 0.0000000000000000e+00  6.9741361127926380e+00 -1.2185695199435209e+01 0.0000000000000000e+00  7.0808933017786773e+00 -1.2307321789333283e+01 0.0000000000000000e+00  6.9507102395029143e+00 -1.2317846016963582e+01 0.0000000000000000e+00  7.0553849604553802e+00 -1.2437347875436989e+01 0.0000000000000000e+00  6.9267280901110757e+00 -1.2448076660576605e+01 0.0000000000000000e+00  7.0295251457943060e+00 -1.2565568936720016e+01 0.0000000000000000e+00  6.9023705805779851e+00 -1.2576416421853271e+01 0.0000000000000000e+00  7.0035205017497857e+00 -1.2692060043555669e+01 0.0000000000000000e+00  6.8778036351626417e+00 -1.2702949074751324e+01 0.0000000000000000e+00  6.9775509732508345e+00 -1.2816941273251505e+01 0.0000000000000000e+00  6.8531732736978634e+00 -1.2827805701340475e+01 0.0000000000000000e+00  6.9517646877428261e+00 -1.2940368859126401e+01 0.0000000000000000e+00  6.8286015354732816e+00 -1.2951155380442129e+01 0.0000000000000000e+00  6.9262743596163707e+00 -1.3062524692943656e+01 0.0000000000000000e+00  6.8041836166665126e+00 -1.3073194027863980e+01 0.0000000000000000e+00  6.9011557379690096e+00 -1.3183604651899996e+01 0.0000000000000000e+00  6.7799865770508871e+00 -1.3194131875000032e+01 0.0000000000000000e+00  6.8764487039737094e+00 -1.3303806159809168e+01 0.0000000000000000e+00  6.7560500921799331e+00 -1.3314179902184609e+01 0.0000000000000000e+00  6.8521611969627738e+00 -1.3423316486471622e+01 0.0000000000000000e+00  6.7323893036201925e+00 -1.3433537046675317e+01 0.0000000000000000e+00  6.8282754799418521e+00 -1.3542303383399778e+01 0.0000000000000000e+00  6.7089993243417503e+00 -1.3552380062855274e+01 0.0000000000000000e+00  6.8047564482002674e+00 -1.3660908030616369e+01 0.0000000000000000e+00  6.6858613392669115e+00 -1.3670855657502976e+01 0.0000000000000000e+00  6.7815610027876021e+00 -1.3779242095351794e+01 0.0000000000000000e+00  6.6629494578567652e+00 -1.3789077303743790e+01 0.0000000000000000e+00  6.7586467844242408e+00 -1.3897389754560514e+01 0.0000000000000000e+00  6.6402370164721027e+00 -1.3907127791450485e+01 0.0000000000000000e+00  6.7359787079480578e+00 -1.4015413740616019e+01 0.0000000000000000e+00  6.6177012828690112e+00 -1.4025066335119966e+01 0.0000000000000000e+00  6.7135324362131641e+00 -1.4133363541585982e+01 0.0000000000000000e+00  6.5953260294839273e+00 -1.4142938034705171e+01 0.0000000000000000e+00  6.6912946639981490e+00 -1.4251283848971642e+01 0.0000000000000000e+00  6.5731019003388242e+00 -1.4260783524804125e+01 0.0000000000000000e+00  6.6692606185021859e+00 -1.4369221720235418e+01 0.0000000000000000e+00  6.5510248275872422e+00 -1.4378647118128914e+01 0.0000000000000000e+00  6.6474295270753609e+00 -1.4487231371548496e+01 0.0000000000000000e+00  6.5290929921925729e+00 -1.4496582257446406e+01 0.0000000000000000e+00  6.6257990312673991e+00 -1.4605375915812672e+01 0.0000000000000000e+00  6.5073030110308903e+00 -1.4614653517519493e+01 0.0000000000000000e+00  6.6043596947306931e+00 -1.4723725720117441e+01 0.0000000000000000e+00  6.4856461851056686e+00 -1.4732934775606134e+01 0.0000000000000000e+00  6.5830907202468065e+00 -1.4842353714264680e+01 0.0000000000000000e+00  6.4641055659287989e+00 -1.4851503951198623e+01 0.0000000000000000e+00  6.5619591332550042e+00 -1.4961326327978588e+01 0.0000000000000000e+00  6.4426558045807081e+00 -1.4970432102733559e+01 0.0000000000000000e+00  6.5409228303154530e+00 -1.5080695064574288e+01 0.0000000000000000e+00  6.4212656171333169e+00 -1.5089773564471701e+01 0.0000000000000000e+00  6.5199356729416023e+00 -1.5200492315519561e+01 0.0000000000000000e+00  6.3999013304949441e+00 -1.5209561387154313e+01 0.0000000000000000e+00  6.4989524965461634e+00 -1.5320731573786823e+01 0.0000000000000000e+00  6.3785301508549743e+00 -1.5329807942324106e+01 0.0000000000000000e+00  6.4779327622831016e+00 -1.5441410465005594e+01 0.0000000000000000e+00  6.3571224779019984e+00 -1.5450508631316080e+01 0.0000000000000000e+00  6.4568425168110712e+00 -1.5562514887925598e+01 0.0000000000000000e+00  6.3356531419211617e+00 -1.5571646671778012e+01 0.0000000000000000e+00  6.4356548930104926e+00 -1.5684023087215765e+01 0.0000000000000000e+00  6.3141017343492969e+00 -1.5693197651755984e+01 0.0000000000000000e+00  6.4143495871228140e+00 -1.5805909060298681e+01 0.0000000000000000e+00  6.2924522960448561e+00 -1.5815133237740563e+01 0.0000000000000000e+00  6.3929117291714945e+00 -1.5928145105702930e+01 0.0000000000000000e+00  6.2706926106311256e+00 -1.5937423881501397e+01 0.0000000000000000e+00  6.3713304550250145e+00 -1.6050703536909658e+01 0.0000000000000000e+00  6.2488132891866153e+00 -1.6060040599569248e+01 0.0000000000000000e+00  6.3495973705605744e+00 -1.6173557663776709e+01 0.0000000000000000e+00  6.2268067661777380e+00 -1.6182955970322642e+01 0.0000000000000000e+00  6.3277050099934691e+00 -1.6296682140432733e+01 0.0000000000000000e+00  6.2046662743853558e+00 -1.6306144475619430e+01 0.0000000000000000e+00  6.3056453460448685e+00 -1.6420052739807751e+01 0.0000000000000000e+00  6.1823848375358033e+00 -1.6429582257802611e+01 0.0000000000000000e+00  6.2834084110379660e+00 -1.6543645575082476e+01 0.0000000000000000e+00  6.1599543171567035e+00 -1.6553246305506303e+01 0.0000000000000000e+00  6.2609811286625110e+00 -1.6667435773496347e+01 0.0000000000000000e+00  6.1373645747682657e+00 -1.6677113051865700e+01 0.0000000000000000e+00  6.2383465207261830e+00 -1.6791395636841234e+01 0.0000000000000000e+00  6.1146028556123904e+00 -1.6801156389407698e+01 0.0000000000000000e+00  6.2154835171248051e+00 -1.6915492404496305e+01 0.0000000000000000e+00  6.0916535500234463e+00 -1.6925345190684887e+01 0.0000000000000000e+00  6.1923676293536438e+00 -1.7039685865743881e+01 0.0000000000000000e+00  6.0684985183107809e+00 -1.7049640571890180e+01 0.0000000000000000e+00  6.1689727167494990e+00 -1.7163926233442449e+01 0.0000000000000000e+00  6.0451181461417294e+00 -1.7173993331610752e+01 0.0000000000000000e+00  6.1452739556091620e+00 -1.7288152869359852e+01 0.0000000000000000e+00  6.0214932070892777e+00 -1.7298342210518644e+01 0.0000000000000000e+00  6.1212518998251850e+00 -1.7412294622924811e+01 0.0000000000000000e+00  5.9976074391562362e+00 -1.7422613819607651e+01 0.0000000000000000e+00  6.0968971917064563e+00 -1.7536272702632594e+01 0.0000000000000000e+00  5.9734505082100320e+00 -1.7546725247810144e+01 0.0000000000000000e+00  6.0722150661167831e+00 -1.7660007113512258e+01 0.0000000000000000e+00  5.9490208238794988e+00 -1.7670590393711279e+01 0.0000000000000000e+00  6.0472279878562487e+00 -1.7783428389746483e+01 0.0000000000000000e+00  5.9243273372299887e+00 -1.7794131722628972e+01 0.0000000000000000e+00  6.0219736648199689e+00 -1.7906497151180169e+01 0.0000000000000000e+00  5.8993895288210343e+00 -1.7917299132182546e+01 0.0000000000000000e+00  5.9964960060580568e+00 -1.8029235205158539e+01 0.0000000000000000e+00  5.8742377953134994e+00 -1.8040094438811114e+01 0.0000000000000000e+00  5.9708323397368952e+00 -1.8151794341580871e+01 0.0000000000000000e+00  5.8489246368373848e+00 -1.8162601678251747e+01 0.0000000000000000e+00  5.9451133202285362e+00 -1.8274838131497372e+01 0.0000000000000000e+00  5.8235808247506045e+00 -1.8285007954414390e+01 0.0000000000000000e+00  5.9191774968375013e+00 -1.8397087807203771e+01 0.0000000000000000e+00  5.7984000486155942e+00 -1.8406669765689720e+01 0.0000000000000000e+00  5.8930110860978573e+00 -1.8517297941812647e+01 0.0000000000000000e+00  5.7733213110327011e+00 -1.8526840757038052e+01 0.0000000000000000e+00  5.8669544994443106e+00 -1.8636228751217843e+01 0.0000000000000000e+00  5.7482303702653512e+00 -1.8645713255169188e+01 0.0000000000000000e+00  5.8411161273497623e+00 -1.8754182448316186e+01 0.0000000000000000e+00  5.7232032072786216e+00 -1.8763586952626682e+01 0.0000000000000000e+00  5.8155370222508216e+00 -1.8871371134064855e+01 0.0000000000000000e+00  5.6982879809662501e+00 -1.8880686047499601e+01 0.0000000000000000e+00  5.7902251433350260e+00 -1.8987969420422370e+01 0.0000000000000000e+00  5.6735050945984469e+00 -1.8997194661385898e+01 0.0000000000000000e+00  5.7651673241700712e+00 -1.9104128468809904e+01 0.0000000000000000e+00  5.6488541147720808e+00 -1.9113271131213491e+01 0.0000000000000000e+00  5.7403353397916934e+00 -1.9219980691330345e+01 0.0000000000000000e+00  5.6243192881364985e+00 -1.9229053244187924e+01 0.0000000000000000e+00  5.7156900278441869e+00 -1.9335641554002631e+01 0.0000000000000000e+00  5.5998737499225681e+00 -1.9344660372704045e+01 0.0000000000000000e+00  5.6911845507565415e+00 -1.9451210520648004e+01 0.0000000000000000e+00  5.5754828123028188e+00 -1.9460194661155835e+01 0.0000000000000000e+00  5.6667670958016476e+00 -1.9566771848498014e+01 0.0000000000000000e+00  5.5511065786696481e+00 -1.9575742030984813e+01 0.0000000000000000e+00  5.6423830959588157e+00 -1.9682395458501144e+01 0.0000000000000000e+00  5.5267020278811634e+00 -1.9691373242395386e+01 0.0000000000000000e+00  5.6179770110785379e+00 -1.9798137911020486e+01 0.0000000000000000e+00  5.5022246619243713e+00 -1.9807145043420281e+01 0.0000000000000000e+00  5.5934937082998104e+00 -1.9914043454355419e+01 0.0000000000000000e+00  5.4776297846953668e+00 -1.9923101372794655e+01 0.0000000000000000e+00  5.5688794902758572e+00 -2.0030145090288013e+01 0.0000000000000000e+00  5.4528734704840689e+00 -2.0039274557247097e+01 0.0000000000000000e+00  5.5440828214766436e+00 -2.0146465615419011e+01 0.0000000000000000e+00  5.4279132706139466e+00 -2.0155686464871447e+01 0.0000000000000000e+00  5.5190548006000695e+00 -2.0263018602698057e+01 0.0000000000000000e+00  5.4027087002167757e+00 -2.0272349580784940e+01 0.0000000000000000e+00  5.4937494432242806e+00 -2.0379809263597124e+01 0.0000000000000000e+00  5.3772215617011021e+00 -2.0389267933818289e+01 0.0000000000000000e+00  5.4681238433853911e+00 -2.0496835173669400e+01 0.0000000000000000e+00  5.3514161599024659e+00 -2.0506437860168901e+01 0.0000000000000000e+00  5.4421382695517950e+00 -2.0614086877631848e+01 0.0000000000000000e+00  5.3252594505176774e+00 -2.0623848628896386e+01 0.0000000000000000e+00  5.4157562635486567e+00 -2.0731548351829304e+01 0.0000000000000000e+00  5.2987211807818593e+00 -2.0741482892094538e+01 0.0000000000000000e+00  5.3889447803640120e+00 -2.0849197407651925e+01 0.0000000000000000e+00  5.2717740457171640e+00 -2.0859317070176658e+01 0.0000000000000000e+00  5.3616743493382542e+00 -2.0967006138675160e+01 0.0000000000000000e+00  5.2443938380681443e+00 -2.0977321801156595e+01 0.0000000000000000e+00  5.3339192218911053e+00 -2.1084941430724221e+01 0.0000000000000000e+00  5.2165595663463735e+00 -2.1095462467982756e+01 0.0000000000000000e+00  5.3056575602543061e+00 -2.1202965400833456e+01 0.0000000000000000e+00  5.1882536026119803e+00 -2.1213699605529964e+01 0.0000000000000000e+00  5.2768716860566096e+00 -2.1321035909006159e+01 0.0000000000000000e+00  5.1594618615393495e+00 -2.1331989386088996e+01 0.0000000000000000e+00  5.2475482801284752e+00 -2.1439107346731554e+01 0.0000000000000000e+00  5.1301739160336455e+00 -2.1450284449491569e+01 0.0000000000000000e+00  5.2176783886653872e+00 -2.1557131680165700e+01 0.0000000000000000e+00  5.1003829569937542e+00 -2.1568535045486684e+01 0.0000000000000000e+00  5.1872571911312395e+00 -2.1675059498824524e+01 0.0000000000000000e+00  5.0700855958693172e+00 -2.1686690177145106e+01 0.0000000000000000e+00  5.1562836276778423e+00 -2.1792840796424436e+01 0.0000000000000000e+00  5.0392815981343713e+00 -2.1804698416738006e+01 0.0000000000000000e+00  5.1247601934426070e+00 -2.1910425158974718e+01 0.0000000000000000e+00  5.0079737996541729e+00 -2.1922507957957556e+01 0.0000000000000000e+00  5.0926930266014949e+00 -2.2027761834797122e+01 0.0000000000000000e+00  4.9761682309980468e+00 -2.2040066559109867e+01 0.0000000000000000e+00  5.0600920426973008e+00 -2.2144800285910275e+01 0.0000000000000000e+00  4.9438741993490423e+00 -2.2157322139819854e+01 0.0000000000000000e+00  5.0269707281904017e+00 -2.2261491308471626e+01 0.0000000000000000e+00  4.9111040443626681e+00 -2.2274224110433789e+01 0.0000000000000000e+00  4.9933453812521078e+00 -2.2377788302679409e+01 0.0000000000000000e+00  4.8778724601388790e+00 -2.2390724890400065e+01 0.0000000000000000e+00  4.9592339145262239e+00 -2.2493648090013732e+01 0.0000000000000000e+00  4.8441955187430406e+00 -2.2506780869710742e+01 0.0000000000000000e+00  4.9246546338875463e+00 -2.2609030809442604e+01 0.0000000000000000e+00  4.8100897305336350e+00 -2.2622352242538781e+01 0.0000000000000000e+00  4.8896255411585701e+00 -2.2723898810637085e+01 0.0000000000000000e+00  4.7755715364496822e+00 -2.2737401615093468e+01 0.0000000000000000e+00  4.8541649332921351e+00 -2.2838214420045496e+01 0.0000000000000000e+00  4.7406578531770585e+00 -2.2851891105220250e+01 0.0000000000000000e+00  4.8182934574176324e+00 -2.2951938149077041e+01 0.0000000000000000e+00  4.7053676612085367e+00 -2.2965779978179164e+01 0.0000000000000000e+00  4.7820368631395542e+00 -2.3065028901756339e+01 0.0000000000000000e+00  4.6697239780769575e+00 -2.3079024740906402e+01 0.0000000000000000e+00  4.7454283087268401e+00 -2.3177446548784975e+01 0.0000000000000000e+00  4.6337554055187971e+00 -2.3191582080290420e+01 0.0000000000000000e+00  4.7085092831607547e+00 -2.3289156181060015e+01 0.0000000000000000e+00  4.5974966456261752e+00 -2.3303413783025139e+01 0.0000000000000000e+00  4.6713286822704623e+00 -2.3400132881824387e+01 0.0000000000000000e+00  4.5609877077116341e+00 -2.3414492266055298e+01 0.0000000000000000e+00  4.6339400643601900e+00 -2.3510365838264164e+01 0.0000000000000000e+00  4.5242718429649971e+00 -2.3524805363088436e+01 0.0000000000000000e+00  4.5963975036969122e+00 -2.3619860824651909e+01 0.0000000000000000e+00  4.4873925079587114e+00 -2.3634359269315532e+01 0.0000000000000000e+00  4.5587507482138898e+00 -2.3728640387064981e+01 0.0000000000000000e+00  4.4503898666951711e+00 -2.3743178881546481e+01 0.0000000000000000e+00  4.5210405835025265e+00 -2.3836741395011149e+01 0.0000000000000000e+00  4.4132974913389926e+00 -2.3851305139483589e+01 0.0000000000000000e+00  4.4832953281482038e+00 -2.3944210152400341e+01 0.0000000000000000e+00  4.3761399037240203e+00 -2.3958789591369605e+01 0.0000000000000000e+00  4.4455299610921832e+00 -2.4051094576685085e+01 0.0000000000000000e+00  4.3389322142420363e+00 -2.4065685238906482e+01 0.0000000000000000e+00  4.4077482230332041e+00 -2.4157436608104952e+01 0.0000000000000000e+00  4.3016818421780840e+00 -2.4172037804928760e+01 0.0000000000000000e+00  4.3699464468034508e+00 -2.4263267608587160e+01 0.0000000000000000e+00  4.2643912357899749e+00 -2.4277880750773303e+01 0.0000000000000000e+00  4.3321174440334129e+00 -2.4368607210890886e+01 0.0000000000000000e+00  4.2270604615699829e+00 -2.4383234397929836e+01 0.0000000000000000e+00  4.2942533149064825e+00 -2.4473464525244228e+01 0.0000000000000000e+00  4.1896890030523064e+00 -2.4488107708490741e+01 0.0000000000000000e+00  4.2563468350560845e+00 -2.4577840236932364e+01 0.0000000000000000e+00  4.1522766165641229e+00 -2.4592500950258483e+01 0.0000000000000000e+00  4.2183916750432635e+00 -2.4681728446000413e+01 0.0000000000000000e+00  4.1148234442041485e+00 -2.4696407918045004e+01 0.0000000000000000e+00  4.1803820172526125e+00 -2.4785117632492316e+01 0.0000000000000000e+00  4.0773297644011741e+00 -2.4799817027873189e+01 0.0000000000000000e+00  4.1423122007695632e+00 -2.4887990627044285e+01 0.0000000000000000e+00  4.0397958021918736e+00 -2.4902711174458101e+01 0.0000000000000000e+00  4.1041769255365850e+00 -2.4990323842414977e+01 0.0000000000000000e+00  4.0022219609023297e+00 -2.5005066666971778e+01 0.0000000000000000e+00  4.0659723450258625e+00 -2.5092086268161925e+01 0.0000000000000000e+00  3.9646097009282824e+00 -2.5106851835367902e+01 0.0000000000000000e+00  4.0276981127724456e+00 -2.5193238861378607e+01 0.0000000000000000e+00  3.9269631011686839e+00 -2.5208026048716960e+01 0.0000000000000000e+00  3.9893601515867800e+00 -2.5293734991097299e+01 0.0000000000000000e+00  3.8892909168982519e+00 -2.5308539919049657e+01 0.0000000000000000e+00  3.9509736317038500e+00 -2.5393522475294343e+01 0.0000000000000000e+00  3.8516087455985146e+00 -2.5408337327607381e+01 0.0000000000000000e+00  3.9125652362511154e+00 -2.5492547788052288e+01 0.0000000000000000e+00  3.8139405814462974e+00 -2.5507360056265320e+01 0.0000000000000000e+00  3.8741734172175408e+00 -2.5590762561807924e+01 0.0000000000000000e+00  3.7763187557089326e+00 -2.5605555312272546e+01 0.0000000000000000e+00  3.8358460854422591e+00 -2.5688130308285423e+01 0.0000000000000000e+00  3.7387820240292737e+00 -2.5702883497702057e+01 0.0000000000000000e+00  3.7976363924742347e+00 -2.5784631016495606e+01 0.0000000000000000e+00  3.7013724308475693e+00 -2.5799323378837396e+01 0.0000000000000000e+00  3.7595979089926086e+00 -2.5880262587053952e+01 0.0000000000000000e+00  3.6641318937394414e+00 -2.5894873513908703e+01 0.0000000000000000e+00  3.7217804148674047e+00 -2.5975039403073943e+01 0.0000000000000000e+00  3.6270992928003607e+00 -2.5989550402400887e+01 0.0000000000000000e+00  3.6842270356446121e+00 -2.6068989054300371e+01 0.0000000000000000e+00  3.5903085053883541e+00 -2.6083384603519004e+01 0.0000000000000000e+00  3.6469729287899124e+00 -2.6162148374701186e+01 0.0000000000000000e+00  3.5537874846981996e+00 -2.6176416178158597e+01 0.0000000000000000e+00  3.6100453062155795e+00 -2.6254559778355965e+01 0.0000000000000000e+00  3.5175582167989718e+00 -2.6268690569471982e+01 0.0000000000000000e+00  3.5734643168524522e+00 -2.6346268569635029e+01 0.0000000000000000e+00  3.4816372244237135e+00 -2.6360255667815100e+01 0.0000000000000000e+00  3.5372441202635181e+00 -2.6437321667268652e+01 0.0000000000000000e+00  3.4460361419599987e+00 -2.6451160573942762e+01 0.0000000000000000e+00  3.5013933740851115e+00 -2.6527767816336215e+01 0.0000000000000000e+00  3.4107618021809110e+00 -2.6541456176397908e+01 0.0000000000000000e+00  3.4659147519335676e+00 -2.6617658322302546e+01 0.0000000000000000e+00  3.3758156500950736e+00 -2.6631196304236422e+01 0.0000000000000000e+00  3.4308037644691693e+00 -2.6707047087977333e+01 0.0000000000000000e+00  3.3411927751019954e+00 -2.6720437954163547e+01 0.0000000000000000e+00  3.3960475681561251e+00 -2.6795989329426092e+01 0.0000000000000000e+00  3.3068810734244143e+00 -2.6809239876644725e+01 0.0000000000000000e+00  3.3616244446588692e+00 -2.6884539123920021e+01 0.0000000000000000e+00  3.2728609883830524e+00 -2.6897659750604838e+01 0.0000000000000000e+00  3.3275043407