<?xml version="1.0"?>
<VTKFile type="UnstructuredGrid"  version="0.1"  >
<UnstructuredGrid>
<Piece  NumberOfPoints="27613" NumberOfCells="50972">
<Points>
<DataArray  type="Float64"  NumberOfComponents="3"  format="ascii">90 100 0  90 99 0  91 100 0  91 99 0  92 100 0  92 99 0  93 100 0  93 99 0  94 100 0  94 99 0  95 100 0  95 99 0  96 100 0  96 99 0  96.99999999999999 100 0  96.99999999999999 99 0  98 100 0  98 99 0  99 100 0  99 99 0  100 100 0  100 99 0  101 100 0  101 99 0  102 100 0  102 99 0  103 100 0  103 99 0  104 100 0  104 99 0  105 100 0  105 99 0  106 100 0  106 99 0  107 100 0  107 99 0  108 100 0  108 99 0  109 100 0  109 99 0  110 100 0  110 99 0  111 100 0  111 99 0  112 100 0  112 99 0  113 100 0  113 99 0  114 100 0  114 99 0  115 100 0  115 99 0  116 100 0  116 99 0  117 100 0  117 99 0  118 100 0  118 99 0  119 100 0  119 99 0  120 100 0  120 99 0  121 100 0  121 99 0  122 100 0  122 99 0  123 100 0  123 99 0  124 100 0  124 99 0  125 100 0  125 99 0  126 100 0  126 99 0  127 100 0  127 99 0  128 100 0  128 99 0  129 100 0  129 99 0  130 100 0  130 99 0  131 100 0  131 99 0  132 100 0  132 99 0  133 100 0  133 99 0  134 100 0  134 99 0  135 100 0  135 99 0  136 100 0  136 99 0  137 100 0  137 99 0  138 100 0  138 99 0  139 100 0  139 99 0  140 100 0  140 99 0  141 100 0  141 99 0  142 100 0  142 99 0  143 100 0  143 99 0  144 100 0  144 99 0  145 100 0  145 99 0  146 100 0  146 99 0  147 100 0  147 99 0  148 100 0  148 99 0  149 100 0  149 99 0  150 100 0  150 99 0  151 100 0  151 99 0  152 100 0  152 99 0  153 100 0  153 99 0  154 100 0  154 99 0  155 100 0  155 99 0  156 100 0  156 99 0  157 100 0  157 99 0  158 100 0  158 99 0  159 100 0  159 99 0  160 100 0  160 99 0  161 100 0  161 99 0  162 100 0  162 99 0  163 100 0  163 99 0  164 100 0  164 99 0  165 100 0  165 99 0  166 100 0  166 99 0  167 100 0  167 99 0  168 100 0  168 99 0  169 100 0  169 99 0  170 100 0  170 99 0  171 100 0  171 99 0  172 100 0  172 99 0  173 100 0  173 99 0  174 100 0  174 99 0  175 100 0  175 99 0  176 100 0  176 99 0  177 100 0  177 99 0  178 100 0  178 99 0  179 100 0  179 99 0  180 100 0  180 99 0  181 100 0  181 99 0  182 100 0  182 99 0  183 100 0  183 99 0  184 100 0  184 99 0  185 100 0  185 99 0  186 100 0  186 99 0  187 100 0  187 99 0  188 100 0  188 99 0  189 100 0  189 99 0  190 100 0  190 99 0  191 100 0  191 99 0  192 100 0  192 99 0  193 100 0  193 99 0  194 100 0  194 99 0  195 100 0  195 99 0  196 100 0  196 99 0  197 100 0  197 99 0  198 100 0  198 99 0  199 100 0  199 99 0  200 100 0  200 99 0  201 100 0  201 99 0  202 100 0  202 99 0  203 100 0  203 99 0  204 100 0  204 99 0  205 100 0  205 99 0  206 100 0  206 99 0  207 100 0  207 99 0  208 100 0  208 99 0  209 100 0  209 99 0  210 100 0  210 99 0  211 100 0  211 99 0  212 100 0  212 99 0  213 100 0  213 99 0  214 100 0  214 99 0  215 100 0  215 99 0  216 100 0  216 99 0  217 100 0  217 99 0  218 100 0  218 99 0  219 100 0  219 99 0  220 100 0  220 99 0  221 100 0  221 99 0  222 100 0  222 99 0  223 100 0  223 99 0  224 100 0  224 99 0  225 100 0  225 99 0  226 100 0  226 99 0  227 100 0  227 99 0  228 100 0  228 99 0  229 100 0  229 99 0  230 100 0  230 99 0  231 100 0  231 99 0  232 100 0  232 99 0  233 100 0  233 99 0  234 100 0  234 99 0  235 100 0  235 99 0  236 100 0  236 99 0  237 100 0  237 99 0  238 100 0  238 99 0  239 100 0  239 99 0  240 100 0  240 99 0  241 100 0  241 99 0  242 100 0  242 99 0  243 100 0  243 99 0  244 100 0  244 99 0  245 100 0  245 99 0  246 100 0  246 99 0  247 100 0  247 99 0  248 100 0  248 99 0  249 100 0  249 99 0  250 100 0  250 99 0  251 100 0  251 99 0  252 100 0  252 99 0  253 100 0  253 99 0  254 100 0  254 99 0  255 100 0  255 99 0  256 100 0  256 99 0  257 100 0  257 99 0  258 100 0  258 99 0  259 100 0  259 99 0  260 100 0  260 99 0  261 100 0  261 99 0  262 100 0  262 99 0  263 100 0  263 99 0  264 100 0  264 99 0  265 100 0  265 99 0  266 100 0  266 99 0  267 100 0  267 99 0  268 100 0  268 99 0  269 100 0  269 99 0  270 100 0  270 99 0  271 100 0  271 99 0  272 100 0  272 99 0  273 100 0  273 99 0  274 100 0  274 99 0  275 100 0  275 99 0  276 100 0  276 99 0  277 100 0  277 99 0  278 100 0  278 99 0  279 100 0  279 99 0  280 100 0  280 99 0  281 100 0  281 99 0  282 100 0  282 99 0  283 100 0  283 99 0  284 100 0  284 99 0  285 100 0  285 99 0  286 100 0  286 99 0  287 100 0  287 99 0  288 100 0  288 99 0  289 100 0  289 99 0  290 100 0  290 99 0  291 100 0  291 99 0  292 100 0  292 99 0  293 100 0  293 99 0  294 100 0  294 99 0  295 100 0  295 99 0  296 100 0  296 99 0  297 100 0  297 99 0  298 100 0  298 99 0  299 100 0  299 99 0  300 100 0  300 99 0  301 100 0  301 99 0  302 100 0  302 99 0  303 100 0  303 99 0  304 100 0  304 99 0  305 100 0  305 99 0  306 100 0  306 99 0  307 100 0  307 99 0  308 100 0  308 99 0  309 100 0  309 99 0  310.0000000000001 100 0  310.0000000000001 99 0  311 100 0  311 99 0  312 100 0  312 99 0  312.9999999999999 100 0  312.9999999999999 99 0  314 100 0  314 99 0  315 100 0  315 99 0  315.9999999999999 100 0  315.9999999999999 99 0  317 100 0  317 99 0  318 100 0  318 99 0  319 100 0  319 99 0  320 100 0  320 99 0  321 100 0  321 99 0  322 100 0  322 99 0  323 100 0  323 99 0  324 100 0  324 99 0  325 100 0  325 99 0  326 100 0  326 99 0  327 100 0  327 99 0  328 100 0  328 99 0  329 100 0  329 99 0  330 100 0  330 99 0  331 100 0  331 99 0  332 100 0  332 99 0  333.0000000000001 100 0  333.0000000000001 99 0  334 100 0  334 99 0  335 100 0  335 99 0  336.0000000000001 100 0  336.0000000000001 99 0  337 100 0  337 99 0  338 100 0  338 99 0  338.9999999999999 100 0  338.9999999999999 99 0  340 100 0  340 99 0  341 100 0  341 99 0  341.9999999999999 100 0  341.9999999999999 99 0  343 100 0  343 99 0  344 100 0  344 99 0  345 100 0  345 99 0  346 100 0  346 99 0  347 100 0  347 99 0  348 100 0  348 99 0  349 100 0  349 99 0  350 100 0  350 99 0  351 100 0  351 99 0  352 100 0  352 99 0  353 100 0  353 99 0  354 100 0  354 99 0  355 100 0  355 99 0  356 100 0  356 99 0  357 100 0  357 99 0  358 100 0  358 99 0  359.0000000000001 100 0  359.0000000000001 99 0  360 100 0  360 99 0  361 100 0  361 99 0  362.0000000000001 100 0  362.0000000000001 99 0  363 100 0  363 99 0  364 100 0  364 99 0  364.9999999999999 100 0  364.9999999999999 99 0  366 100 0  366 99 0  367 100 0  367 99 0  368 100 0  368 99 0  369 100 0  369 99 0  370 100 0  370 99 0  371 100 0  371 99 0  372 100 0  372 99 0  373 100 0  373 99 0  374 100 0  374 99 0  375 100 0  375 99 0  376 100 0  376 99 0  377 100 0  377 99 0  378 100 0  378 99 0  379 100 0  379 99 0  380 100 0  380 99 0  381 100 0  381 99 0  382 100 0  382 99 0  383 100 0  383 99 0  384 100 0  384 99 0  385.0000000000001 100 0  385.0000000000001 99 0  386 100 0  386 99 0  387 100 0  387 99 0  387.9999999999999 100 0  387.9999999999999 99 0  389 100 0  389 99 0  390 100 0  390 99 0  390.9999999999999 100 0  390.9999999999999 99 0  392 100 0  392 99 0  393 100 0  393 99 0  394 100 0  394 99 0  395 100 0  395 99 0  396 100 0  396 99 0  397 100 0  397 99 0  398 100 0  398 99 0  399 100 0  399 99 0  400 100 0  400 99 0  401 100 0  401 99 0  402 100 0  402 99 0  403 100 0  403 99 0  404 100 0  404 99 0  405 100 0  405 99 0  406 100 0  406 99 0  407 100 0  407 99 0  408.0000000000001 100 0  408.0000000000001 99 0  409 100 0  409 99 0  410 100 0  410 99 0  411.0000000000001 100 0  411.0000000000001 99 0  412 100 0  412 99 0  413 100 0  413 99 0  413.9999999999999 100 0  413.9999999999999 99 0  415 100 0  415 99 0  416 100 0  416 99 0  416.9999999999999 100 0  416.9999999999999 99 0  418 100 0  418 99 0  419 100 0  419 99 0  420 100 0  420 99 0  421 100 0  421 99 0  422 100 0  422 99 0  423 100 0  423 99 0  424 100 0  424 99 0  425 100 0  425 99 0  426 100 0  426 99 0  427 100 0  427 99 0  428 100 0  428 99 0  429 100 0  429 99 0  430 100 0  430 99 0  431 100 0  431 99 0  432 100 0  432 99 0  433 100 0  433 99 0  434.0000000000001 100 0  434.0000000000001 99 0  435 100 0  435 99 0  436 100 0  436 99 0  437.0000000000001 100 0  437.0000000000001 99 0  438 100 0  438 99 0  439 100 0  439 99 0  439.9999999999999 100 0  439.9999999999999 99 0  441 100 0  441 99 0  442 100 0  442 99 0  443 100 0  443 99 0  444 100 0  444 99 0  445 100 0  445 99 0  446 100 0  446 99 0  447 100 0  447 99 0  448 100 0  448 99 0  449 100 0  449 99 0  450 100 0  450 99 0  451 100 0  451 99 0  452 100 0  452 99 0  453 100 0  453 99 0  454 100 0  454 99 0  455 100 0  455 99 0  456 100 0  456 99 0  457 100 0  457 99 0  458 100 0  458 99 0  459 100 0  459 99 0  460.0000000000001 100 0  460.0000000000001 99 0  461 100 0  461 99 0  462 100 0  462 99 0  462.9999999999999 100 0  462.9999999999999 99 0  464 100 0  464 99 0  465 100 0  465 99 0  465.9999999999999 100 0  465.9999999999999 99 0  467 100 0  467 99 0  468 100 0  468 99 0  469 100 0  469 99 0  470 100 0  470 99 0  471 100 0  471 99 0  472 100 0  472 99 0  473 100 0  473 99 0  474 100 0  474 99 0  475 100 0  475 99 0  476 100 0  476 99 0  477 100 0  477 99 0  478 100 0  478 99 0  479 100 0  479 99 0  480 100 0  480 99 0  481 100 0  481 99 0  482 100 0  482 99 0  483.0000000000001 100 0  483.0000000000001 99 0  484 100 0  484 99 0  485 100 0  485 99 0  486.0000000000001 100 0  486.0000000000001 99 0  487 100 0  487 99 0  488 100 0  488 99 0  488.9999999999999 100 0  488.9999999999999 99 0  490 100 0  490 99 0  491 100 0  491 99 0  491.9999999999999 100 0  491.9999999999999 99 0  493 100 0  493 99 0  494 100 0  494 99 0  495 100 0  495 99 0  496 100 0  496 99 0  497 100 0  497 99 0  498 100 0  498 99 0  499 100 0  499 99 0  500 100 0  500 99 0  501 100 0  501 99 0  502 100 0  502 99 0  503 100 0  503 99 0  504 100 0  504 99 0  505 100 0  505 99 0  506 100 0  506 99 0  507 100 0  507 99 0  508 100 0  508 99 0  509.0000000000001 100 0  509.0000000000001 99 0  510 100 0  510 99 0  88 99 0  88 98 0  89 99 0  89 98 0  90 98 0  91 98 0  92 98 0  93 98 0  94 98 0  95 98 0  96 98 0  96.99999999999999 98 0  98 98 0  99 98 0  10
[...]
<PointData  Scalars="f_32"> 
<DataArray  type="Float64"  Name="f_32"  format="ascii">1.3013471654786667e+01  1.2944668823917119e+01  1.3124883460662332e+01  1.3054608302332726e+01  1.3236426862895556e+01  1.3166512561978140e+01  1.3347716430976744e+01  1.3278761269752490e+01  1.3458334793406113e+01  1.3390706006127180e+01  1.3568010390658745e+01  1.3501948351640758e+01  1.3676548969848680e+01  1.3612206530131079e+01  1.3783808003747435e+01  1.3721274412425302e+01  1.3889688977697247e+01  1.3829002961121585e+01  1.3994136520398680e+01  1.3935294515257199e+01  1.4097139221618475e+01  1.4040101511775411e+01  1.4198729581641285e+01  1.4143425854203663e+01  1.4298982097127080e+01  1.4245317124326908e+01  1.4398009250953930e+01  1.4345868931896998e+01  1.4495955549141327e+01  1.4445213283215484e+01  1.4592989908768157e+01  1.4543513119401318e+01  1.4689296773930735e+01  1.4640953299472828e+01  1.4785066408289191e+01  1.4737730397861817e+01  1.4880484951473683e+01  1.4834041853765124e+01  1.4975724810205504e+01  1.4930074915888110e+01  1.5070936728962799e+01  1.5025996972679971e+01  1.5166244700594778e+01  1.5121948729085547e+01  1.5261743552963944e+01  1.5218039878577725e+01  1.5357500392386090e+01  1.5314349070503582e+01  1.5453559974666399e+01  1.5410928626945251e+01  1.5549952584276882e+01  1.5507812601699037e+01  1.5646702489161276e+01  1.5605026067488843e+01  1.5743835303709218e+01  1.5702593720680513e+01  1.5841383126402775e+01  1.5800546423640277e+01  1.5939386829796639e+01  1.5898924831153618e+01  1.6037895299781113e+01  1.5997779683558361e+01  1.6136961776026912e+01  1.6097168723499568e+01  1.6236638003336068e+01  1.6197150858258109e+01  1.6336965812974352e+01  1.6297776248439327e+01  1.6437970743453103e+01  1.6399078266855412e+01  1.6539660211453644e+01  1.6501070614013315e+01  1.6642025551629803e+01  1.6603748979642507e+01  1.6745046032335114e+01  1.6707095156830430e+01  1.6848693207648203e+01  1.6811081742703358e+01  1.6952934658535430e+01  1.6915676310491357e+01  1.7057736765767693e+01  1.7020844597931269e+01  1.7163066506990027e+01  1.7126552662728390e+01  1.7268892417784159e+01  1.7232768138849686e+01  1.7375184878330284e+01  1.7339460766202489e+01  1.7481915848712237e+01  1.7446602329748725e+01  1.7589058122628686e+01  1.7554166081397081e+01  1.7696584132015847e+01  1.7662125663603227e+01  1.7804464334500583e+01  1.7770453533680474e+01  1.7912665262924179e+01  1.7879118921271534e+01  1.8021147411085995e+01  1.7988085445735102e+01  1.8129863259324313e+01  1.8097308666946819e+01  1.8238755884553772e+01  1.8206734018389589e+01  1.8347758725757679e+01  1.8316295743512036e+01  1.8456797167144327e+01  1.8425917595973214e+01  1.8565792651734892e+01  1.8535516153647670e+01  1.8674670030630711e+01  1.8645007579240215e+01  1.8783369283909263e+01  1.8754319197728591e+01  1.8891863214987193e+01  1.8863407307198884e+01  1.9000184074140623e+01  1.8972280584125659e+01  1.9108485100373166e+01  1.9081032506295745e+01  1.9217436066740124e+01  1.9189878488088944e+01  1.9325768970541997e+01  1.9298259670685127e+01  1.9432288319756733e+01  1.9405438107796357e+01  1.9537814064279342e+01  1.9511555551327884e+01  1.9642659278130377e+01  1.9616914478286674e+01  1.9747031218780077e+01  1.9721737413640998e+01  1.9851092148554308e+01  1.9826200963509137e+01  1.9954976489287766e+01  1.9930451650429621e+01  2.0058797211558744e+01  2.0034612627582277e+01  2.0162648816979193e+01  2.0138786988326711e+01  2.0266609198157667e+01  2.0243059855288326e+01  2.0370741155713414e+01  2.0347500067465237e+01  2.0475093820912033e+01  2.0452161746473426e+01  2.0579704034356702e+01  2.0557085807077161e+01  2.0684597668755103e+01  2.0662301406066089e+01  2.0789790862432405e+01  2.0767827294221082e+01  2.0895291143092308e+01  2.0873673052015963e+01  2.1001098424773399e+01  2.0979840191134766e+01  2.1107205840749668e+01  2.1086323070323672e+01  2.1213600415498739e+01  2.1193109627466796e+01  2.1320263606439404e+01  2.1300181963084594e+01  2.1427171711386073e+01  2.1407516753984744e+01  2.1534296230952190e+01  2.1515085608812292e+01  2.1641604279288877e+01  2.1622855484336029e+01  2.1749059052938836e+01  2.1730789170290411e+01  2.1856620241220199e+01  2.1838845665474857e+01  2.1964244520983883e+01  2.1946980637381017e+01  2.2071886307152162e+01  2.2055147201730062e+01  2.2179498705623079e+01  2.2163296971733224e+01  2.2287034420268434e+01  2.2271381077672007e+01  2.2394446374819317e+01  2.2379350859389206e+01  2.2501687804154450e+01  2.2487157862346660e+01  2.2608712300169579e+01  2.2594753774509314e+01  2.2715474335875360e+01  2.2702090989532824e+01  2.2821930269564884e+01  2.2809123816017586e+01  2.2928039381912541e+01  2.2915809787280271e+01  2.3033764393068608e+01  2.3022110379242676e+01  2.3139071095603107e+01  2.3127990650437070e+01  2.3243927135317449e+01  2.3233417784789939e+01  2.3348299965257013e+01  2.3338358374691509e+01  2.3452155514230490e+01  2.3442776421146249e+01  2.3555458918016761e+01  2.3546633789228707e+01  2.3658177440104168e+01  2.3649893341014693e+01  2.3760284740042636e+01  2.3752523800482837e+01  2.3861765290556917e+01  2.3854504975503843e+01  2.3962617824049204e+01  2.3955832036937394e+01  2.4062856965356044e+01  2.4056517849647896e+01  2.4162512542276275e+01  2.4156592708203597e+01  2.4261626414346441e+01  2.4256101206908209e+01  2.4360247166163152e+01  2.4355096566272564e+01  2.4458422426261503e+01  2.4453631686384036e+01  2.4556191931180948e+01  2.4551750958705533e+01  2.4653583785389621e+01  2.4649485896103499e+01  2.4750614062903708e+01  2.4746854735190599e+01  2.4847288490547989e+01  2.4843864490582874e+01  2.4943604733794345e+01  2.4940513706679976e+01  2.5039554220541120e+01  2.5036794646289607e+01  2.5135123005541370e+01  2.5132694313233383e+01  2.5230291666642305e+01  2.5228194270396109e+01  2.5325034567610864e+01  2.5323269617135079e+01  2.5419319025504610e+01  2.5417887737785851e+01  2.5513105004273843e+01  2.5512007549362259e+01  2.5606345935613994e+01  2.5605579976259605e+01  2.5698991113339694e+01  2.5698550219645796e+01  2.5790990093716687e+01  2.5790862492024338e+01  2.5882299047840409e+01  2.5882467370500954e+01  2.5972886964868568e+01  2.5973329142540912e+01  2.6062739521056351e+01  2.6063430443055783e+01  2.6151859791803101e+01  2.6152773193935438e+01  2.6240266274919509e+01  2.6241376407302216e+01  2.6327989317722775e+01  2.6329272133476145e+01  2.6415067101579783e+01  2.6416500891588040e+01  2.6501542107911849e+01  2.6503107651089142e+01  2.6587458654872762e+01  2.6589139050015454e+01  2.6672861843203062e+01  2.6674642293849185e+01  2.6757797884297354e+01  2.6759665781366557e+01  2.6842314814027166e+01  2.6844260214835639e+01  2.6926462430707637e+01  2.6928478750478096e+01  2.7010290930910667e+01  2.7012375544528794e+01  2.7093848477120098e+01  2.7096002972496276e+01  2.7177178405428069e+01  2.7179408361629857e+01  2.7260316899230677e+01  2.7262631218848600e+01  2.7343291907250208e+01  2.7345701929500695e+01  2.7426123449304946e+01  2.7428642099367664e+01  2.7508824879715426e+01  2.7511466013434621e+01  2.7591404504213042e+01  2.7594182492923430e+01  2.7673867071082558e+01  2.7676796594676862e+01  2.7756214879247565e+01  2.7759310863430436e+01  2.7838448436788948e+01  2.7841726069043684e+01  2.7920566721025160e+01  2.7924041493437567e+01  2.8002567142472600e+01  2.8006254887162513e+01  2.8084445322215188e+01  2.8088362220877510e+01  2.8166194776783943e+01  2.8170357337593355e+01  2.8247806581310549e+01  2.8252231584125315e+01  2.8329269058595251e+01  2.8333973473789047e+01  2.8410567522666067e+01  2.8415568411177738e+01  2.8491684089932871e+01  2.8496998492684973e+01  2.8572597558876318e+01  2.8578242382825437e+01  2.8653283354545191e+01  2.8659275262530773e+01  2.8733713528109710e+01  2.8740068838750751e+01  2.8813856791308023e+01  2.8820591390818571e+01  2.8893678569101350e+01  2.8900807833917199e+01  2.8973141057050398e+01  2.8980679782389085e+01  2.9052203294831671e+01  2.9060165629741537e+01  2.9130821268632985e+01  2.9139220663637630e+01  2.9208948027201686e+01  2.9217797196803321e+01  2.9286533761565991e+01  2.9295844646533872e+01  2.9363525848117000e+01  2.9373309564080660e+01  2.9439868893065075e+01  2.9450135662436349e+01  2.9515504807456850e+01  2.9526263875102433e+01  2.9590372890918278e+01  2.9601632404211070e+01  2.9664410011527039e+01  2.9676176873434816e+01  2.9737550989989185e+01  2.9749830729792137e+01  2.9809729176134198e+01  2.9822525883014450e+01  2.9880877074294656e+01  2.9894193405623369e+01  2.9950926845787571e+01  2.9964764082101244e+01  3.0019810520811738e+01  3.0034168579827828e+01  3.0087460110818689e+01  3.0102337499162900e+01  3.0153807915762130e+01  3.0169201680615089e+01  3.0218787105878366e+01  3.0234692863592517e+01  3.0282332401230217e+01  3.0298744473377482e+01  3.0344380560829450e+01  3.0361292182730701e+01  3.0404870474004330e+01  3.0422273999082428e+01  3.0463742654957002e+01  3.0481629589282541e+01  3.0520938656074350e+01  3.0539299528743864e+01  3.0576400995447699e+01  3.0595225229804704e+01  3.0630073697503814e+01  3.0649349650358605e+01  3.0681903065511072e+01  3.0701618290815865e+01  3.0731838132621519e+01  3.0751979788981256e+01  3.0779830360878552e+01  3.0800385578072039e+01  3.0825832512301115e+01  3.0846788506924685e+01  3.0869796577409232e+01  3.0891140153441384e+01  3.0911672189755233e+01  3.0933388696806553e+01  3.0951406927334780e+01  3.0973479100966003e+01  3.0988948793585184e+01  3.1011355935583932e+01  3.1024250202953752e+01  3.1046968003583459e+01  3.1057272375394472e+01  3.1080273480235718e+01  3.1087989047703132e+01  3.1111244297217183e+01  3.1116388622888525e+01  3.1139868757888266e+01  3.1142474168069977e+01  3.1166151694883148e+01  3.1166260991575097e+01  3.1190111835525560e+01  3.1187772026707460e+01  3.1211776626604241e+01  3.1207030624171956e+01  3.1231173698590379e+01  3.1224053739242407e+01  3.1248322875365790e+01  3.1238848153882500e+01  3.1263231933720029e+01  3.1251410242452874e+01  3.1275896558435250e+01  3.1261728331141772e+01  3.1286303239303493e+01  3.1269786320550615e+01  3.1294433510263818e+01  3.1275567473968589e+01  3.1300268278345158e+01  3.1279057671958792e+01  3.1303791484501605e+01  3.1280247772035878e+01  3.1304992730952119e+01  3.1279134932435802e+01  3.1303868749212594e+01  3.1275722882511605e+01  3.1300423705144329e+01  3.1270021193063954e+01  3.1294668399177350e+01  3.1262043657176402e+01  3.1286618470632686e+01  3.1251805959871756e+01  3.1276291784905702e+01  3.1239322900157628e+01  3.1263705280053269e+01  3.1224605524608499e+01  3.1248871665786460e+01  3.1207658621132829e+01  3.1231796481819050e+01  3.1188479083947893e+01  3.1212476107237269e+01  3.1167055671956131e+01  3.1190897337645058e+01  3.1143370576582800e+01  3.1167039026856454e+01  3.1117403309275488e+01  3.1140876503463382e+01  3.1089136920051015e+01  3.1112388890053847e+01  3.1058564473206157e+01  3.1081566672962808e+01  3.1025693469553321e+01  3.1048416713998829e+01  3.0990547146885351e+01  3.1012963533535530e+01  3.0953162879264305e+01  3.0975247243210891e+01  3.0913588608253626e+01  3.0935319288988499e+01  3.0871878421714388e+01  3.0893237316127426e+01  3.0828088283978929e+01  3.0849060298086766e+01  3.0782272699778460e+01  3.0802844800234212e+01  3.0734482835465560e+01  3.0754642949752835e+01  3.0684766467047815e+01  3.0704502552465524e+01  3.0633169790121290e+01  3.0652469426705707e+01  3.0579740061812259e+01  3.0598590635545328e+01  3.0524527749299594e+01  3.0542916998819422e+01  3.0467587418388778e+01  3.0485504024839880e+01  3.0408977346827964e+01  3.0426411323294392e+01  3.0348758353110057e+01  3.0365701136420181e+01  3.0286992499768804e+01  3.0303436785923303e+01  3.0223742286326171e+01  3.0239681767026639e+01  3.0159070696224056e+01  3.0174499917855975e+01  3.0093041811751615e+01  3.0107956256981733e+01  3.0025721381143526e+01  3.0040117708831321e+01  2.9957176888532576e+01  2.9971053189828993e+01  2.9887477050875731e+01  2.9900833001196844e+01  2.9816690966689258e+01  2.9829527827605549e+01  2.9744887278208118e+01  2.9757207790292924e+01  2.9672133655856577e+01  2.9683941926817486e+01  2.9598496591955318e+01  2.9609798047527995e+01  2.9524041262637205e+01  2.9534842648349485e+01  2.9448831245706806e+01  2.9459140621467661e+01  2.9372928057339152e+01  2.9382754734368913e+01  2.9296390638482240e+01  2.9305745052284657e+01  2.9219274985719576e+01  2.9228168549225600e+01  2.9141633996536516e+01  2.9150078979847557e+01  2.9063517456684792e+01  2.9071526908049449e+01  2.8984972064199336e+01  2.8992559760914489e+01  2.8906041436083566e+01  2.8913221851295184e+01  2.8826766071680375e+01  2.8833554343549650e+01  2.8747183255558724e+01  2.8753595143053150e+01  2.8667326906949814e+01  2.8673378719216267e+01  2.8587227420479003e+01  2.8592935918935854e+01  2.8506911547536042e+01  2.8512293829177381e+01  2.8426402345666631e+01  2.8431475717578202e+01  2.8345719198284446e+01  2.8350501049193479e+01  2.8264877896604531e+01  2.8269385566957670e+01  2.8183890783178736e+01  2.8188141435682297e+01  2.8102766964999223e+01  2.8106777461542844e+01  2.8021512600814081e+01  2.8025299395386039e+01  2.7940131252946394e+01  2.7943710311413941e+01  2.7858624274070753e+01  2.7862011029899953e+01  2.7776991178658978e+01  2.7780200528459389e+01  2.7695229931110436e+01  2.7698276265189300e+01  2.7613337072322178e+01  2.7616234323809401e+01  2.7531307608156133e+01  2.7534069291443007e+01  2.7449134600476974e+01  2.7451773798561998e+01  2.7366808435795903e+01  2.7369337690170180e+01  2.7284315797449700e+01  2.7286746856774879e+01  2.7201638432238624e+01  2.7203981829773834e+01  2.7118751880017818e+01  2.7121016336687113e+01  2.7035624413069666e+01  2.7037816099638732e+01  2.6952216396403173e+01  2.6954338087359410e+01  2.6868480833651830e+01  2.6870531209503646e+01  2.6784365417185619e+01  2.6786338800955885e+01  2.6699815585902130e+01  2.6701702215542724e+01  2.6614777665457098e+01  2.6616564381972211e+01  2.6529201238921271e+01  2.6530872328818507e+01  2.6443040331718684e+01  2.6444578251323325e+01  2.6356253046968266e+01  2.6357638647651001e+01  2.6268800949469750e+01  2.6270013290874999e+01  2.6180649643987316e+01  2.6181665814700395e+01  2.6091770996385151e+01  2.6092566340626945e+01  2.6002146483818191e+01  2.6002695422379084e+01  2.5911770683316107e+01  2.5912048085878084e+01  2.5820653849689474e+01  2.5820636739135303e+01  2.5728822713001342e+01  2.5728491973530762e+01  2.5636318921836104e+01  2.5635660636736674e+01  2.5543195083337917e+01  2.5542201194154384e+01  2.5449507626451197e+01  2.5448175214784779e+01  2.5355309396138377e+01  2.5353638898117914e+01  2.5260644767855755e+01  2.5258637965964951e+01  2.5165547967013364e+01  2.5163206426694664e+01  2.5070043731251815e+01  2.5067367936236366e+01  2.4974148984464424e+01  2.4971138092659807e+01  2.4877874402896225e+01  2.4874526374244262e+01  2.4781225210808945e+01  2.4777537020354583e+01  2.4684201003700760e+01  2.4680168697645961e+01  2.4586794770328488e+01  2.4582413212490010e+01  2.4488991553939400e+01  2.4484253821613091e+01  2.4390767364011182e+01  2.4385663870981531e+01  2.4292089025914173e+01  2.4286606563034880e+01  2.4192915590170614e+01  2.4187036552035444e+01  2.4093202037668544e+01  2.4086904268449970e+01  2.3992905658394381e+01  2.3986163452947203e+01  2.3891993125287513e+01  2.3884779266700903e+01  2.3790445769638495e+01  2.3782733960971338e+01  2.3688261727700723e+01  2.3680028728357261e+01  2.3585454980733768e+01  2.3576682000599003e+01  2.3482052127495827e+01  2.3472725327166739e+01  2.3378087998479440e+01  2.3368198173034219e+01  2.3273601166495666e+01  2.3263142830992496e+01  2.3168630219176617e+01  2.3157600384412969e+01  2.3063211417424114e+01  2.3051608361800493e+01  2.2957378217691442e+01  2.2945200589655922e+01  2.2851162851655808e+01  2.2838409439424431e+01  2.2744598971979112e+01  2.2731269135773186e+01  2.2637723928618300e+01  2.2623818372945941e+01  2.2530579740919062e+01  2.2516101233451849e+01  2.2423212613921471e+01  2.2408166381056866e+01  2.2315671428501595e+01  2.2300065145975477e+01  2.2208005882415272e+01  2.2191849339768797e+01  2.2100264978797171e+01  2.2083569611424096e+01  2.1992496371513671e+01  2.1975274907619966e+01  2.1884746385969251e+01  2.1867012706189890e+01  2.1777060125202102e+01  2.1758829249611843e+01  2.1669481194458676e+01  2.1650769242024509e+01  2.1562050950575777e+01  2.1542874962354141e+01  2.1454807516396642e+01  2.1435185136975093e+01  2.1347784943810900e+01  2.1327734054558270e+01  2.1241012659809961e+01  2.1220551043414336e+01  2.1134515070696494e+01  2.1113660115829507e+01  2.1028311162378738e+01  2.1007079576074695e+01  2.0922414050364431e+01  2.0900821557856087e+01  2.0816830452463908e+01  2.0794891469254864e+01  2.0711560028658305e+01  2.0689287279950094e+01  2.0606594552301722e+01  2.0583998614433607e+01  2.0501916898818838e+01  2.0479005639611646e+01  2.0397499860884800e+01  2.0374277759099797e+01  2.0293304842623847e+01  2.0269772178207642e+01  2.0189280512373159e+01  2.0165432431576107e+01  2.0085361493197464e+01  2.0061186964459257e+01  1.9981467131445690e+01  1.9956947825724313e+01  1.9877500282192791e+01  1.9852609461074433e+01  1.9773345810552925e+01  1.9748047460336540e+01  1.9668867940624047e+01  1.9643116874884054e+01  1.9563904149910492e+01  1.9537649350136057e+01  1.9458248923944339e+01  1.9431447876440735e+01  1.9351600350046485e+01  1.9324278484600960e+01  1.9243242401869882e+01  1.9215882773017555e+01  1.9134271827934668e+01  1.9106874741044102e+01  1.9025851593942264e+01  1.8997951908915304e+01  1.8917409946903618e+01  1.8888962992139632e+01  1.8808798141621004e+01  1.8779771950149620e+01  1.8699980171357346e+01  1.8670354550855777e+01  1.8590980834094879e+01  1.8560749955761647e+01  1.8481861951790481e+01  1.8451033511810973e+01  1.8372703406299213e+01  1.8341295288148199e+01  1.8263588111629499e+01  1.8231624015185030e+01  1.8154592460531127e+01  1.8122097920333392e+01  1.8045781994521860e+01  1.8012781548649176e+01  1.7937210813031008e+01  1.7903726443762338e+01  1.7828923088437207e+01  1.7794973698077587e+01  1.7720955445398097e+01  1.7686557023968366e+01  1.7613339445998541e+01  1.7578505620425560e+01  1.7506103801381489e+01  1.7470846538217128e+01  1.7399276166468304e+01  1.7363606482080385e+01  1.7292884490443381e+01  1.7256813084075851e+01  1.7186957929117977e+01  1.7150495691593125e+01  1.7081527310155273e+01  1.7044685677649916e+01  1.6976625106994028e+01  1.6939416230935581e+01  1.6872284847019586e+01  1.6834721544421040e+01  1.6768539875707770e+01  1.6730635317229886e+01  1.6665421437061269e+01  1.6627188532055040e+01  1.6562956118238134e+01  1.6524406575894353e+01  1.6461162837816158e+01  1.6422305926878067e+01  1.6360049716970394e+01  1.6320890812592388e+01  1.6259611337916940e+01  1.6220150425008804e+01  1.6159827034587522e+01  1.6120057415443508e+01  1.6060660867103881e+01  1.6020568348220330e+01  1.5962064399584591e+01  1.5921627409960351e+01  1.5863983322016757e+01  1.5823174530668902e+01  1.5766365231891285e+01  1.5725154141726435e+01  1.5669165239134449e+01  1.5627520639320593e+01  1.5572347677228068e+01  1.5530239030447877e+01  1.5475883872803575e+01  1.5433281217550354e+01  1.5379746852983947e+01  1.5336619248857406e+01  1.5283904185501175e+01  1.5240217014342708e+01  1.5188310171767386e+01  1.5144021758968242e+01  1.5092898565892046e+01  1.5047956661227603e+01  1.4997576938866970e+01  1.4951915625268249e+01  1.4902223878760577e+01  1.4855761519486077e+01  1.4806690393884155e+01  1.4759329322347293e+01  1.4710805109510824e+01  1.4662433249985892e+01  1.4614382092540904e+01  1.4564876292350760e+01  1.4517230455933570e+01  1.4466461240707822e+01  1.4419164744178829e+01  1.4367002101003720e+01  1.4320015013485444e+01  1.4266334730960523e+01  1.4219635748012365e+01  1.4164325890987229e+01  1.4117913108207212e+01  1.4060880363106262e+01  1.4014770297298128e+01  1.3955946152935523e+01  1.3910171009954805e+01  1.3849518047789601e+01  1.3804121066854954e+01  1.3741640104791836e+01  1.3696668617346976e+01  1.3632408239638956e