<?xml version="1.0"?>
<VTKFile type="UnstructuredGrid"  version="0.1"  >
<UnstructuredGrid>
<Piece  NumberOfPoints="27613" NumberOfCells="50972">
<Points>
<DataArray  type="Float64"  NumberOfComponents="3"  format="ascii">90 100 0  90 99 0  91 100 0  91 99 0  92 100 0  92 99 0  93 100 0  93 99 0  94 100 0  94 99 0  95 100 0  95 99 0  96 100 0  96 99 0  96.99999999999999 100 0  96.99999999999999 99 0  98 100 0  98 99 0  99 100 0  99 99 0  100 100 0  100 99 0  101 100 0  101 99 0  102 100 0  102 99 0  103 100 0  103 99 0  104 100 0  104 99 0  105 100 0  105 99 0  106 100 0  106 99 0  107 100 0  107 99 0  108 100 0  108 99 0  109 100 0  109 99 0  110 100 0  110 99 0  111 100 0  111 99 0  112 100 0  112 99 0  113 100 0  113 99 0  114 100 0  114 99 0  115 100 0  115 99 0  116 100 0  116 99 0  117 100 0  117 99 0  118 100 0  118 99 0  119 100 0  119 99 0  120 100 0  120 99 0  121 100 0  121 99 0  122 100 0  122 99 0  123 100 0  123 99 0  124 100 0  124 99 0  125 100 0  125 99 0  126 100 0  126 99 0  127 100 0  127 99 0  128 100 0  128 99 0  129 100 0  129 99 0  130 100 0  130 99 0  131 100 0  131 99 0  132 100 0  132 99 0  133 100 0  133 99 0  134 100 0  134 99 0  135 100 0  135 99 0  136 100 0  136 99 0  137 100 0  137 99 0  138 100 0  138 99 0  139 100 0  139 99 0  140 100 0  140 99 0  141 100 0  141 99 0  142 100 0  142 99 0  143 100 0  143 99 0  144 100 0  144 99 0  145 100 0  145 99 0  146 100 0  146 99 0  147 100 0  147 99 0  148 100 0  148 99 0  149 100 0  149 99 0  150 100 0  150 99 0  151 100 0  151 99 0  152 100 0  152 99 0  153 100 0  153 99 0  154 100 0  154 99 0  155 100 0  155 99 0  156 100 0  156 99 0  157 100 0  157 99 0  158 100 0  158 99 0  159 100 0  159 99 0  160 100 0  160 99 0  161 100 0  161 99 0  162 100 0  162 99 0  163 100 0  163 99 0  164 100 0  164 99 0  165 100 0  165 99 0  166 100 0  166 99 0  167 100 0  167 99 0  168 100 0  168 99 0  169 100 0  169 99 0  170 100 0  170 99 0  171 100 0  171 99 0  172 100 0  172 99 0  173 100 0  173 99 0  174 100 0  174 99 0  175 100 0  175 99 0  176 100 0  176 99 0  177 100 0  177 99 0  178 100 0  178 99 0  179 100 0  179 99 0  180 100 0  180 99 0  181 100 0  181 99 0  182 100 0  182 99 0  183 100 0  183 99 0  184 100 0  184 99 0  185 100 0  185 99 0  186 100 0  186 99 0  187 100 0  187 99 0  188 100 0  188 99 0  189 100 0  189 99 0  190 100 0  190 99 0  191 100 0  191 99 0  192 100 0  192 99 0  193 100 0  193 99 0  194 100 0  194 99 0  195 100 0  195 99 0  196 100 0  196 99 0  197 100 0  197 99 0  198 100 0  198 99 0  199 100 0  199 99 0  200 100 0  200 99 0  201 100 0  201 99 0  202 100 0  202 99 0  203 100 0  203 99 0  204 100 0  204 99 0  205 100 0  205 99 0  206 100 0  206 99 0  207 100 0  207 99 0  208 100 0  208 99 0  209 100 0  209 99 0  210 100 0  210 99 0  211 100 0  211 99 0  212 100 0  212 99 0  213 100 0  213 99 0  214 100 0  214 99 0  215 100 0  215 99 0  216 100 0  216 99 0  217 100 0  217 99 0  218 100 0  218 99 0  219 100 0  219 99 0  220 100 0  220 99 0  221 100 0  221 99 0  222 100 0  222 99 0  223 100 0  223 99 0  224 100 0  224 99 0  225 100 0  225 99 0  226 100 0  226 99 0  227 100 0  227 99 0  228 100 0  228 99 0  229 100 0  229 99 0  230 100 0  230 99 0  231 100 0  231 99 0  232 100 0  232 99 0  233 100 0  233 99 0  234 100 0  234 99 0  235 100 0  235 99 0  236 100 0  236 99 0  237 100 0  237 99 0  238 100 0  238 99 0  239 100 0  239 99 0  240 100 0  240 99 0  241 100 0  241 99 0  242 100 0  242 99 0  243 100 0  243 99 0  244 100 0  244 99 0  245 100 0  245 99 0  246 100 0  246 99 0  247 100 0  247 99 0  248 100 0  248 99 0  249 100 0  249 99 0  250 100 0  250 99 0  251 100 0  251 99 0  252 100 0  252 99 0  253 100 0  253 99 0  254 100 0  254 99 0  255 100 0  255 99 0  256 100 0  256 99 0  257 100 0  257 99 0  258 100 0  258 99 0  259 100 0  259 99 0  260 100 0  260 99 0  261 100 0  261 99 0  262 100 0  262 99 0  263 100 0  263 99 0  264 100 0  264 99 0  265 100 0  265 99 0  266 100 0  266 99 0  267 100 0  267 99 0  268 100 0  268 99 0  269 100 0  269 99 0  270 100 0  270 99 0  271 100 0  271 99 0  272 100 0  272 99 0  273 100 0  273 99 0  274 100 0  274 99 0  275 100 0  275 99 0  276 100 0  276 99 0  277 100 0  277 99 0  278 100 0  278 99 0  279 100 0  279 99 0  280 100 0  280 99 0  281 100 0  281 99 0  282 100 0  282 99 0  283 100 0  283 99 0  284 100 0  284 99 0  285 100 0  285 99 0  286 100 0  286 99 0  287 100 0  287 99 0  288 100 0  288 99 0  289 100 0  289 99 0  290 100 0  290 99 0  291 100 0  291 99 0  292 100 0  292 99 0  293 100 0  293 99 0  294 100 0  294 99 0  295 100 0  295 99 0  296 100 0  296 99 0  297 100 0  297 99 0  298 100 0  298 99 0  299 100 0  299 99 0  300 100 0  300 99 0  301 100 0  301 99 0  302 100 0  302 99 0  303 100 0  303 99 0  304 100 0  304 99 0  305 100 0  305 99 0  306 100 0  306 99 0  307 100 0  307 99 0  308 100 0  308 99 0  309 100 0  309 99 0  310.0000000000001 100 0  310.0000000000001 99 0  311 100 0  311 99 0  312 100 0  312 99 0  312.9999999999999 100 0  312.9999999999999 99 0  314 100 0  314 99 0  315 100 0  315 99 0  315.9999999999999 100 0  315.9999999999999 99 0  317 100 0  317 99 0  318 100 0  318 99 0  319 100 0  319 99 0  320 100 0  320 99 0  321 100 0  321 99 0  322 100 0  322 99 0  323 100 0  323 99 0  324 100 0  324 99 0  325 100 0  325 99 0  326 100 0  326 99 0  327 100 0  327 99 0  328 100 0  328 99 0  329 100 0  329 99 0  330 100 0  330 99 0  331 100 0  331 99 0  332 100 0  332 99 0  333.0000000000001 100 0  333.0000000000001 99 0  334 100 0  334 99 0  335 100 0  335 99 0  336.0000000000001 100 0  336.0000000000001 99 0  337 100 0  337 99 0  338 100 0  338 99 0  338.9999999999999 100 0  338.9999999999999 99 0  340 100 0  340 99 0  341 100 0  341 99 0  341.9999999999999 100 0  341.9999999999999 99 0  343 100 0  343 99 0  344 100 0  344 99 0  345 100 0  345 99 0  346 100 0  346 99 0  347 100 0  347 99 0  348 100 0  348 99 0  349 100 0  349 99 0  350 100 0  350 99 0  351 100 0  351 99 0  352 100 0  352 99 0  353 100 0  353 99 0  354 100 0  354 99 0  355 100 0  355 99 0  356 100 0  356 99 0  357 100 0  357 99 0  358 100 0  358 99 0  359.0000000000001 100 0  359.0000000000001 99 0  360 100 0  360 99 0  361 100 0  361 99 0  362.0000000000001 100 0  362.0000000000001 99 0  363 100 0  363 99 0  364 100 0  364 99 0  364.9999999999999 100 0  364.9999999999999 99 0  366 100 0  366 99 0  367 100 0  367 99 0  368 100 0  368 99 0  369 100 0  369 99 0  370 100 0  370 99 0  371 100 0  371 99 0  372 100 0  372 99 0  373 100 0  373 99 0  374 100 0  374 99 0  375 100 0  375 99 0  376 100 0  376 99 0  377 100 0  377 99 0  378 100 0  378 99 0  379 100 0  379 99 0  380 100 0  380 99 0  381 100 0  381 99 0  382 100 0  382 99 0  383 100 0  383 99 0  384 100 0  384 99 0  385.0000000000001 100 0  385.0000000000001 99 0  386 100 0  386 99 0  387 100 0  387 99 0  387.9999999999999 100 0  387.9999999999999 99 0  389 100 0  389 99 0  390 100 0  390 99 0  390.9999999999999 100 0  390.9999999999999 99 0  392 100 0  392 99 0  393 100 0  393 99 0  394 100 0  394 99 0  395 100 0  395 99 0  396 100 0  396 99 0  397 100 0  397 99 0  398 100 0  398 99 0  399 100 0  399 99 0  400 100 0  400 99 0  401 100 0  401 99 0  402 100 0  402 99 0  403 100 0  403 99 0  404 100 0  404 99 0  405 100 0  405 99 0  406 100 0  406 99 0  407 100 0  407 99 0  408.0000000000001 100 0  408.0000000000001 99 0  409 100 0  409 99 0  410 100 0  410 99 0  411.0000000000001 100 0  411.0000000000001 99 0  412 100 0  412 99 0  413 100 0  413 99 0  413.9999999999999 100 0  413.9999999999999 99 0  415 100 0  415 99 0  416 100 0  416 99 0  416.9999999999999 100 0  416.9999999999999 99 0  418 100 0  418 99 0  419 100 0  419 99 0  420 100 0  420 99 0  421 100 0  421 99 0  422 100 0  422 99 0  423 100 0  423 99 0  424 100 0  424 99 0  425 100 0  425 99 0  426 100 0  426 99 0  427 100 0  427 99 0  428 100 0  428 99 0  429 100 0  429 99 0  430 100 0  430 99 0  431 100 0  431 99 0  432 100 0  432 99 0  433 100 0  433 99 0  434.0000000000001 100 0  434.0000000000001 99 0  435 100 0  435 99 0  436 100 0  436 99 0  437.0000000000001 100 0  437.0000000000001 99 0  438 100 0  438 99 0  439 100 0  439 99 0  439.9999999999999 100 0  439.9999999999999 99 0  441 100 0  441 99 0  442 100 0  442 99 0  443 100 0  443 99 0  444 100 0  444 99 0  445 100 0  445 99 0  446 100 0  446 99 0  447 100 0  447 99 0  448 100 0  448 99 0  449 100 0  449 99 0  450 100 0  450 99 0  451 100 0  451 99 0  452 100 0  452 99 0  453 100 0  453 99 0  454 100 0  454 99 0  455 100 0  455 99 0  456 100 0  456 99 0  457 100 0  457 99 0  458 100 0  458 99 0  459 100 0  459 99 0  460.0000000000001 100 0  460.0000000000001 99 0  461 100 0  461 99 0  462 100 0  462 99 0  462.9999999999999 100 0  462.9999999999999 99 0  464 100 0  464 99 0  465 100 0  465 99 0  465.9999999999999 100 0  465.9999999999999 99 0  467 100 0  467 99 0  468 100 0  468 99 0  469 100 0  469 99 0  470 100 0  470 99 0  471 100 0  471 99 0  472 100 0  472 99 0  473 100 0  473 99 0  474 100 0  474 99 0  475 100 0  475 99 0  476 100 0  476 99 0  477 100 0  477 99 0  478 100 0  478 99 0  479 100 0  479 99 0  480 100 0  480 99 0  481 100 0  481 99 0  482 100 0  482 99 0  483.0000000000001 100 0  483.0000000000001 99 0  484 100 0  484 99 0  485 100 0  485 99 0  486.0000000000001 100 0  486.0000000000001 99 0  487 100 0  487 99 0  488 100 0  488 99 0  488.9999999999999 100 0  488.9999999999999 99 0  490 100 0  490 99 0  491 100 0  491 99 0  491.9999999999999 100 0  491.9999999999999 99 0  493 100 0  493 99 0  494 100 0  494 99 0  495 100 0  495 99 0  496 100 0  496 99 0  497 100 0  497 99 0  498 100 0  498 99 0  499 100 0  499 99 0  500 100 0  500 99 0  501 100 0  501 99 0  502 100 0  502 99 0  503 100 0  503 99 0  504 100 0  504 99 0  505 100 0  505 99 0  506 100 0  506 99 0  507 100 0  507 99 0  508 100 0  508 99 0  509.0000000000001 100 0  509.0000000000001 99 0  510 100 0  510 99 0  88 99 0  88 98 0  89 99 0  89 98 0  90 98 0  91 98 0  92 98 0  93 98 0  94 98 0  95 98 0  96 98 0  96.99999999999999 98 0  98 98 0  99 98 0  10
[...]
<PointData  Scalars="f_49"> 
<DataArray  type="Float64"  Name="f_49"  format="ascii">1.4997159159815737e-02  3.1972276813654360e-02  1.6690730147818755e-02  2.6994861654309490e-02  2.5319747371351810e-02  3.2479124532213959e-02  3.2660783281591783e-02  3.6394579432546183e-02  3.9130982737564990e-02  4.0722808239095035e-02  4.4848225841794723e-02  4.4859251347524373e-02  4.9859403691017545e-02  4.8705633373265299e-02  5.4203709267056185e-02  5.2181427593688018e-02  5.7894508254501188e-02  5.5232119729309248e-02  6.0935669036558754e-02  5.7824020571890962e-02  6.3332683942832160e-02  5.9939200315176397e-02  6.5100525167269302e-02  6.1575004111099695e-02  6.6268386558813605e-02  6.2743805294805485e-02  6.6881693463986147e-02  6.3472600217147304e-02  6.7001980815530937e-02  6.3802117766586050e-02  6.6705080146582357e-02  6.3785321694300193e-02  6.6077799094292691e-02  6.3485125555017091e-02  6.5213332572528829e-02  6.2971295567116642e-02  6.4205272516060286e-02  6.2316225108715727e-02  6.3140361709032616e-02  6.1589123482012287e-02  6.2092046794950381e-02  6.0850689610055075e-02  6.1115011798844932e-02  6.0148472334206025e-02  6.0240971937195888e-02  5.9512211731160843e-02  5.9478096287707727e-02  5.8952595438354793e-02  5.8814871357001565e-02  5.8464116204330042e-02  5.8227113064375176e-02  5.8030601653840358e-02  5.7686143312674923e-02  5.7631621756725739e-02  5.7166521169806396e-02  5.7248514961038388e-02  5.6652139516342570e-02  5.6869165562976033e-02  5.6140210783893849e-02  5.6491326910531138e-02  5.5642152261886228e-02  5.6123564985311646e-02  5.5182348836196798e-02  5.5784898427233748e-02  5.4792108094140535e-02  5.5500664318107490e-02  5.4499381733181466e-02  5.5292968260614625e-02  5.4320875915398033e-02  5.5174359520968226e-02  5.4259851705146446e-02  5.5146777203376310e-02  5.4308394751346321e-02  5.5203840882086540e-02  5.4451583515968308e-02  5.5334215792042993e-02  5.4671605677121926e-02  5.5524661911359241e-02  5.4950904981889363e-02  5.5762241932913237e-02  5.5274192506390596e-02  5.6035678650755649e-02  5.5629528211359032e-02  5.6336063652603269e-02  5.6008782081812578e-02  5.6657153838117376e-02  5.6407744314437805e-02  5.6995448870894937e-02  5.6826054096088464e-02  5.7350172063578293e-02  5.7266999366519598e-02  5.7723197792361139e-02  5.7737128654616089e-02  5.8118888158274533e-02  5.8245533555366061e-02  5.8543727763184512e-02  5.8802628575920779e-02  5.9005595389225840e-02  5.9418294472025519e-02  5.9512525516576126e-02  6.0099371592550264e-02  6.0070910892201859e-02  6.0846693747654924e-02  6.0683279089641287e-02  6.1652092705748639e-02  6.1345985204973169e-02  6.2496092515817822e-02  6.2047395796045381e-02  6.3347195397609052e-02  6.2767154742795359e-02  6.4164178723278620e-02  6.3476636315234078e-02  6.4902376938271139e-02  6.4141622224251946e-02  6.5528154406395367e-02  6.4725298196699407e-02  6.6047462140736576e-02  6.5150432753114107e-02  6.6092811991037975e-02  6.5323625301138888e-02  6.5347340280361724e-02  6.4463406117403824e-02  6.5309165191410223e-02  6.3405732566298070e-02  6.5571948809922134e-02  6.3165852147665874e-02  6.5063148703217347e-02  6.3023598296720218e-02  6.4449592033047939e-02  6.2765095081619315e-02  6.3777216340591136e-02  6.2413994592431847e-02  6.3116160735874213e-02  6.2045630731904021e-02  6.2510980845365549e-02  6.1701524774137387e-02  6.1993893489520904e-02  6.1415856997615870e-02  6.1588187613564056e-02  6.1212997503605461e-02  6.1309608811214757e-02  6.1109757649639648e-02  6.1167695376279668e-02  6.1116810330941795e-02  6.1166934861434395e-02  6.1239892258820219e-02  6.1307831789268484e-02  6.1480862094085716e-02  6.1587863543294839e-02  6.1838612095777713e-02  6.2002304520297674e-02  6.2309838650869032e-02  6.2544931324930012e-02  6.2889702957626067e-02  6.3208590481482654e-02  6.3572370802085082e-02  6.3985581820888177e-02  6.4351370601656535e-02  6.4867897936044902e-02  6.5219831016347207e-02  6.5847298912072444e-02  6.6170580641015900e-02  6.6915237590715437e-02  6.7196094006820709e-02  6.8062753557695116e-02  6.8288429769347639e-02  6.9280497966495339e-02  6.9439325379697589e-02  7.0558718727025016e-02  7.0640246885645963e-02  7.1887089333618148e-02  7.1882211923583295e-02  7.3254652654398386e-02  7.3155748090821246e-02  7.4650162002882450e-02  7.4451237581160304e-02  7.6062662098367942e-02  7.5759410355760989e-02  7.7482071233287958e-02  7.7071795487505909e-02  7.8899150481571173e-02  7.8380607172249969e-02  8.0304768749132852e-02  7.9677920550793715e-02  8.1689363718391209e-02  8.0955230949460805e-02  8.3043360702235489e-02  8.2204000948486206e-02  8.4358423568630936e-02  8.3416875710760480e-02  8.5628862339625841e-02  8.4588926246554411e-02  8.6852221252732328e-02  8.5718089293274638e-02  8.8028746732263047e-02  8.6804726520998660e-02  8.9158973594572158e-02  8.7849630867030376e-02  9.0239842364956566e-02  8.8850504746413525e-02  9.1261725262958587e-02  8.9799551372123962e-02  9.2208170331743264e-02  9.0683523237591740e-02  9.3058461167237400e-02  9.1485935277294109e-02  9.3791958997027303e-02  9.2190472487105171e-02  9.4392944529315903e-02  9.2784654016408369e-02  9.4854773135432960e-02  9.3262934501224512e-02  9.5182613350350651e-02  9.3628821469306484e-02  9.5393884551857752e-02  9.3895241458609058e-02  9.5516755609604875e-02  9.4083635877711069e-02  9.5585226369413218e-02  9.4220373864862914e-02  9.5631321729041721e-02  9.4329873507597639e-02  9.5678777386798253e-02  9.4429621628529664e-02  9.5740951130229984e-02  9.4529020249789056e-02  9.5822489798399413e-02  9.4631068736464055e-02  9.5922807644336402e-02  9.4735171618561570e-02  9.6039531024269223e-02  9.4839737266004032e-02  9.6170772233471508e-02  9.4943826313828444e-02  9.6315803800897576e-02  9.5047586616074875e-02  9.6474215656529028e-02  9.5151537000543310e-02  9.6643966078711216e-02  9.5254992056452784e-02  9.6818931577162065e-02  9.5354078541108056e-02  9.6986690830769884e-02  9.5439923535157595e-02  9.7127285471666436e-02  9.5497609902828628e-02  9.7213683819957750e-02  9.5506386943752103e-02  9.7215374610699873e-02  9.5442559332061166e-02  9.7104688041243406e-02  9.5284916192513017e-02  9.6862839125495925e-02  9.5019511961246902e-02  9.6483107240175309e-02  9.4641825040823108e-02  9.5970585470731160e-02  9.4156282509087155e-02  9.5339421966604901e-02  9.3574072583827730e-02  9.4608944471609183e-02  9.2910270464101469e-02  9.3799895740250591e-02  9.2181095550908962e-02  9.2931621946351697e-02  9.1401857525603300e-02  9.2020700833552932e-02  9.0585906362248683e-02  9.1081525799004706e-02  8.9745121784400264e-02  9.0128524198008014e-02  8.8891857955023190e-02  8.9178467352246771e-02  8.8040836044157481e-02  8.8251395020222140e-02  8.7209755354492449e-02  8.7369662973928675e-02  8.6418353044729057e-02  8.6555599335741987e-02  8.5686391340510898e-02  8.5828660325367262e-02  8.5031270776589729e-02  8.5203222076372612e-02  8.4466160416977062e-02  8.4687873595313920e-02  8.3999464378793381e-02  8.4286181069896854e-02  8.3635493809502665e-02  8.3998260852709589e-02  8.3375718511761260e-02  8.3822443037179895e-02  8.3220027971813867e-02  8.3756574105038659e-02  8.3167690333027150e-02  8.3798806747046983e-02  8.3217928005448707e-02  8.3947923946921257e-02  8.3370161208804167e-02  8.4203330402914972e-02  8.3624019735259583e-02  8.4564853580107693e-02  8.3979222843094600e-02  8.5032468856763188e-02  8.4435405618435280e-02  8.5606025735488325e-02  8.4991944383394066e-02  8.6285018692743465e-02  8.5647811420192801e-02  8.7068422208055482e-02  8.6401473261936743e-02  8.7954594737996980e-02  8.7250837352973079e-02  8.8941245274615041e-02  8.8193243007381114e-02  9.0025451670867535e-02  8.9225488415325876e-02  9.1203724637459280e-02  9.0343893386615429e-02  9.2472099392696697e-02  9.1544383784254182e-02  9.3826234029873626e-02  9.2822578960917862e-02  9.5261488840312908e-02  9.4173861483891161e-02  9.6772983259053869e-02  9.5593424039953398e-02  9.8355657086553999e-02  9.7076324902783395e-02  1.0000436211353066e-01  9.8617578007981987e-02  1.0171393141592017e-01  1.0021222042659914e-01  1.0347916598802243e-01  1.0185529190598885e-01  1.0529474632645675e-01  1.0354175512210761e-01  1.0715513888621134e-01  1.0526643492061033e-01  1.0905446277937056e-01  1.0702392715285160e-01  1.1098630483232158e-01  1.0880842677874959e-01  1.1294364092116638e-01  1.1061365897121478e-01  1.1491902360254085e-01  1.1243306091555171e-01  1.1690497200522859e-01  1.1426011910099865e-01  1.1889439678747631e-01  1.1608871847422553e-01  1.2088072609528397e-01  1.1791321955702716e-01  1.2285762331389465e-01  1.1972813735290663e-01  1.2481868599243295e-01  1.2152788455664285e-01  1.2675751726342385e-01  1.2330690056073959e-01  1.2866821697813180e-01  1.2506012037892114e-01  1.3054594347251716e-01  1.2678341842569030e-01  1.3238726871890072e-01  1.2847384851112614e-01  1.3418984037411605e-01  1.3012929460636530e-01  1.3595135703422875e-01  1.3174744883505965e-01  1.3766876174966550e-01  1.3332516201058447e-01  1.3933840181799945e-01  1.3485876715140371e-01  1.4095705464594602e-01  1.3634510679789311e-01  1.4252318319125484e-01  1.3778266238533712e-01  1.4403749847046937e-01  1.3917199649489206e-01  1.4550251472337336e-01  1.4051538950050857e-01  1.4692038552402967e-01  1.4181505993441351e-01  1.4828936928291783e-01  1.4306992815992184e-01  1.4960114042624689e-01  1.4427338852088856e-01  1.5084064241144279e-01  1.4541338383322594e-01  1.5198857138878188e-01  1.4647453033042981e-01  1.5302551230823477e-01  1.4744138232143447e-01  1.5393651083792106e-01  1.4830193814388737e-01  1.5471495520991316e-01  1.4905059128707451e-01  1.5536506699477742e-01  1.4969009800983132e-01  1.5590216556603487e-01  1.5023182484767694e-01  1.5635102185120242e-01  1.5069470323675066e-01  1.5674094302097288e-01  1.5110162569501132e-01  1.5709805689203402e-01  1.5147268958599147e-01  1.5743897637619442e-01  1.5182022471109347e-01  1.5776852181273590e-01  1.5214748734688099e-01  1.5808117881208394e-01  1.5245013783735276e-01  1.5836459181929957e-01  1.5271897047953809e-01  1.5860349350253072e-01  1.5294275572838573e-01  1.5878311238195625e-01  1.5311061896334557e-01  1.5889168914229174e-01  1.5321378422519533e-01  1.5892207718328105e-01  1.5324671403916054e-01  1.5887252923320727e-01  1.5320773084488562e-01  1.5874676632356061e-01  1.5309917658712330e-01  1.5855337318042578e-01  1.5292711195833728e-01  1.5830452810974174e-01  1.5270051769395121e-01  1.5801409262578453e-01  1.5242996676085716e-01  1.5769516060972300e-01  1.5212579995992243e-01  1.5735729583476493e-01  1.5179596180406432e-01  1.5700382590332090e-01  1.5144378605876302e-01  1.5662972596720598e-01  1.5106618110057918e-01  1.5622065598976534e-01  1.5065268769056486e-01  1.5575381170640912e-01  1.5018587232726247e-01  1.5520189130888004e-01  1.4964441505131898e-01  1.5453967837610794e-01  1.4900869499399844e-01  1.5375026726991509e-01  1.4826576387488621e-01  1.5282839551339553e-01  1.4741172530249788e-01  1.5178028682223565e-01  1.4645141340926005e-01  1.5062083526843878e-01  1.4539619218112310e-01  1.4936943116507759e-01  1.4426083841072398e-01  1.4804560113601278e-01  1.4306029933964942e-01  1.4666532858913417e-01  1.4180691646485291e-01  1.4523861821106282e-01  1.4050853057531290e-01  1.4376867188747208e-01  1.3916773811601951e-01  1.4225318792703806e-01  1.3778285629415704e-01  1.4068747476942614e-01  1.3635051988278524e-01  1.3906781388753284e-01  1.3486836742443906e-01  1.3739355146840607e-01  1.3333655510996578e-01  1.3566738845346360e-01  1.3175782065154887e-01  1.3389426306749364e-01  1.3013651491999292e-01  1.3207965051632639e-01  1.2847725860955250e-01  1.3022811478720908e-01  1.2678382306941396e-01  1.2834286144207324e-01  1.2505883154854380e-01  1.2642645827599674e-01  1.2330446881094373e-01  1.2448206420242013e-01  1.2152353775241687e-01  1.2251431679364966e-01  1.1972013807342764e-01  1.2052945105278851e-01  1.1789968680530465e-01  1.1853474873473969e-01  1.1606842348012504e-01  1.1653772791294564e-01  1.1423273952109630e-01  1.1454559355769152e-01  1.1239875405814961e-01  1.1256521869861284e-01  1.1057237274748651e-01  1.1060345750882977e-01  1.0875959875392503e-01  1.0866739344893969e-01  1.0696673419900274e-01  1.0676428448501252e-01  1.0520029865150812e-01  1.0490124180225407e-01  1.0346672572669056e-01  1.0308489624230333e-01  1.0177206908539982e-01  1.0132128780737937e-01  1.0012193062779304e-01  9.9615990102680851e-02  9.8521587029271857e-02  9.7974320137869386e-02  9.6976160988307927e-02  9.6401511018614508e-02  9.5490741987133768e-02  9.4902809353489576e-02  9.4070452796145440e-02  9.3483483795405276e-02  9.2720453915295917e-02  9.2148733050210485e-02  9.1445866033218137e-02  9.0903519618157402e-02  9.0251628323938751e-02  8.9752391180514909e-02  8.9142351036004139e-02  8.8699339171647129e-02  8.8122201627535368e-02  8.7747705943580834e-02  8.7194827582377732e-02  8.6900123309883240e-02  8.6363295827302997e-02  8.6158467115796611e-02  8.5630033785334334e-02  8.5523835841660636e-02  8.4996781604837909e-02  8.4996578798099159e-02  8.4464579973014153e-02  8.4576398905497063e-02  8.4033815750344576e-02  8.4262541338271033e-02  8.3704337265333356e-02  8.4054058757343883e-02  8.3475636672754525e-02  8.3950119611508042e-02  8.3347078305114397e-02  8.3950300216237908e-02  8.3318129467276680e-02  8.4054780714377164e-02  8.3388529522514354e-02  8.4264353175495216e-02  8.3558317368393226e-02  8.4580161623254935e-02  8.3827644300235662e-02  8.5003113824351148e-02  8.4196311928957490e-02  8.5532977111126146e-02  8.4663047353427848e-02  8.6167189294726956e-02  8.5224532120712876e-02  8.6899624736451297e-02  8.5874429663569396e-02  8.7719328199567112e-02  8.6602381329158637e-02  8.8609752531111058e-02  8.7393344585568813e-02  8.9549490191554476e-02  8.8228405501426369e-02  9.0514568737584150e-02  8.9086933443435989e-02  9.1481420251811787e-02  8.9949130345259656e-02  9.2429196581124751e-02  9.0797815370424528e-02  9.3340823449389654e-02  9.1619138898617294e-02  9.4201990731546031e-02  9.2401609128371087e-02  9.4998468480693696e-02  9.3133490999362259e-02  9.5713964196690593e-02  9.3801019205290131e-02  9.6330214846243337e-02  9.4388691678782499e-02  9.6829386732951689e-02  9.4881361645756168e-02  9.7197816800803319e-02  9.5267232758725423e-02  9.7429773146769663e-02  9.5540751200254598e-02  9.7530235569557561e-02  9.5704765563959654e-02  9.7515606348447761e-02  9.5771073156941749e-02  9.7412546951774537e-02  9.5759720633092738e-02  9.7253450143847536e-02  9.5695690554350177e-02  9.7069025900154787e-02  9.5602327584171407e-02  9.6882251126354194e-02  9.5496527901587025e-02  9.6706359516220280e-02  9.5387598000567786e-02  9.6546440161981981e-02  9.5278852477285833e-02  9.6402771385362754e-02  9.5170303900756370e-02  9.6274100665117449e-02  9.5061146884983488e-02  9.6159761888737177e-02  9.4951306629522822e-02  9.6060208591170218e-02  9.4841784814845051e-02  9.5976043762997926e-02  9.4733856880484302e-02  9.5905955754749334e-02  9.4627407654729934e-02  9.5844171779857476e-02  9.4518859491887555e-02  9.5778178707847481e-02  9.4399284910988007e-02  9.5687480120937099e-02  9.4253324198605062e-02  9.5544136029193719e-02  9.4059414132747807e-02  9.5316551598230825e-02  9.3792787548280979e-02  9.4976109946405957e-02  9.3431140502417021e-02  9.4503541156279111e-02  9.2959685455468052e-02  9.3892309286177769e-02  9.2373505131402842e-02  9.3148353382509264e-02  9.1677118114076583e-02  9.2287051444781026e-02  9.0882126927570417e-02  9.1328784563648166e-02  9.0003945635826907e-02  9.0294344275503521e-02  8.9058420012133446e-02  8.9201092656953168e-02  8.8058946273490993e-02  8.8060470151859846e-02  8.7014528418312240e-02  8.6877209758403115e-02  8.5929044194776830e-02  8.5650789926001836e-02  8.4802296735676436e-02  8.4378817991613009e-02  8.3632812615801452e-02  8.3060684261710413e-02  8.2420755739700050e-02  8.1699844116197726e-02  8.1169593896357209e-02  8.0304133534242761e-02  7.9886195841386440e-02  7.8884514677894563e-02  7.8579776508141991e-02  7.7453122874659969e-02  7.7260374112825686e-02  7.6021497692051757e-02  7.5937485638103680e-02  7.4599814176172161e-02  7.4619507135268048e-02  7.3197337737185370e-02  7.3314235383076465e-02  7.1823443808950463e-02  7.2029764098280699e-02  7.0488328714936321e-02  7.0775016821978703e-02  6.9202993379874816e-02  6.9559638498590037e-02  6.7978635958797121e-02  6.8393413656414354e-02  6.6825987579373275e-02  6.7285681887594137e-02  6.5755036979509601e-02  6.6245152830964923e-02  6.4775131131774050e-02  6.5280028708124077e-02  6.3895166217409094e-02  6.4398140168474699e-02  6.3123699353699728e-02  6.3606976027826737e-02  6.2468979380229404e-02  6.2913669446157366e-02  6.1938877352224503e-02  6.2324921125559159e-02  6.1540662157580008e-02  6.1846792106504504e-02  6.1280584576006054e-02  6.1484340761813708e-02  6.1163240972281895e-02  6.1241076508250017e-02  6.1190713033209700e-02  6.1118219001273837e-02  6.1361519282120906e-02  6.1113793726389191e-02  6.1669435138612783e-02  6.1221607357797476e-02  6.2102236901585318e-02  6.1430154140602294e-02  6.2640415903312985e-02  6.1721538937329790e-02  6.3255887901698615e-02  6.2070584915417761e-02  6.3910338244781831e-02  6.2444696329263978e-02  6.4554237906912379e-02  6.2805860486886952e-02  6.5124345917940585e-02  6.3116173971695916e-02  6.5509537157054237e-02  6.3387567422750438e-02  6.6049599020743435e-02  6.3677137320382771e-02  6.6989285010972746e-02  6.4714578801393016e-02  6.6802185572896369e-02  6.5621746179500964e-02  6.5899892371132848e-02  6.5410909342516962e-02  6.5459762257408807e-02  6.4881809567926746e-02  6.4860149344912882e-02  6.4264893645283663e-02  6.4146453434500469e-02  6.3609783298148148e-02  6.3345363798705853e-02  6.2912518652591287e-02  6.2505760172778368e-02  6.2204211373728308e-02  6.1674503419301280e-02  6.1512705488649531e-02  6.0885661694983280e-02  6.0859140259902585e-02  6.0157998471606459e-02  6.0254882453206246e-02  5.9496975007162119e-02  5.9702664631460643e-02  5.8898825830324436e-02  5.9199229392178074e-02  5.8354705457286195e-02  5.8738034712111017e-02  5.7854003626772336e-02  5.8311423429466186e-02  5.7386638935711276e-02  5.7912128163791668e-02  5.6944495206229843e-02  5.7534222310656143e-02  5.6522273022709478e-02  5.7173696245157897e-02  5.6118001868730977e-02  5.6828824098255917e-02  5.5733370739641630e-02  5.6500435269881480e-02  5.5373925281128361e-02  5.6192134250753104e-02  5.5049070001113184e-02  5.5910432043072132e-02  5.4771730093401021e-02  5.5664671308674085e-02  5.4557493855684661e-02  5.5466565327169773e-02  5.4423093454766619e-02  5.5329172204340103e-02  5.4384199375348538e-02  5.5265217164069409e-02  5.4452693451132225e-02  5.5284849171497188e-02  5.4633800353991277e-02  5.5393140114809780e-02  5.4923679930908166e-02  5.5587880117464399e-02  5.5308212355019870e-02  5.5858350820130312e-02  5.5763715879245383e-02  5.6185537677916626e-02  5.6261973008499083e-02  5.6546271786887085e-02  5.6778939074112106e-02  5.6921029504262713e-02  5.7302470598628703e-02  5.7300044825966089e-02  5.7835593164655981e-02  5.7685306994316295e-02  5.8394907928459416e-02  5.8088920481807652e-02  5.9005498155760915e-02  5.8529113249661521e-02  5.9693990764264140e-02  5.9024980934720965e-02  6.0481110307783373e-02  5.9590782528339402e-02  6.1374674448433371e-02  6.0230458405239634e-02  6.2363875873060574e-02  6.0933159423298175e-02  6.3415496002020205e-02  6.1670352551289116e-02  6.4473598432565477e-02  6.2396001404916066e-02  6.5463233662852338e-02  6.3050388575879454e-02  6.6296470485199960e-02  6.3565260316053251e-02  6.6879302534903401e-02  6.3869101362152458e-02  6.7118689153012417e-02  6.3892377256719118e-02  6.6928873618843573e-02  6.3572120403204160e-02  6.6236193204141466e-02  6.2855413030997162e-02  6.4982006630881856e-02  6.1701777346791407e-02  6.3123706277016550e-02  6.0084765375135976e-02  6.0633856242981676e-02  5.7993149643954495e-02  5.7497358278527450e-02  5.5432235011843752e-02  5.3706619907804558e-02  5.2426000591284341e-02  4.9254384455554093e-02  4.9021038444743571e