<?xml version="1.0"?>
<VTKFile type="UnstructuredGrid"  version="0.1"  >
<UnstructuredGrid>
<Piece  NumberOfPoints="651" NumberOfCells="2156">
<Points>
<DataArray  type="Float64"  NumberOfComponents="3"  format="ascii">0.99 -0.100001 -0.1615402430221451  0.99 -0.100001 -0.207694147447009  0.9521624865543893 -0.05406454833263453 -0.1701944187143542  0.99 -0.03539775852755622 -0.1846171840970832  0.594166 -0.100001 -0.08333469170492042  0.594166 -0.04980372711844853 -0.1041680504639766  0.5334338025105574 -0.06342284424240664 -0.07864732893802406  0.594166 -0.04011233307461787 -0.06250131078873099  0.489999 0.099997 -0.100001  0.4271328872233148 0.099997 -0.04317422309309727  0.4632465908208861 0.03271373680830891 -0.03426575495798884  0.4951287547954432 0.099997 -0.0163141586472239  0.9327200206657569 0.099997 0.2319530259256584  0.99 0.099997 0.2538442412526804  0.9430152388445585 0.099997 0.299998  0.99 0.04124905955859046 0.2397790953002114  0.1968221912376475 0.03787991784600309 -0.0378578959284234  0.2219831130088293 -0.03138859953354571 -0.100001  0.2363095098919704 -0.04130906145324092 -0.04205117908319046  0.1688861500054547 -0.02169815945381112 -0.02346842639208992  0.9283773790901314 -0.0003233329576113769 0.1349446768141005  0.99 -0.04537191931562957 0.09230598023249914  0.99 -0.001917360620506374 0.0923059802324992  0.99 -0.03451295509598104 0.1384597899669557  0.8242230884583917 0.099997 -0.208335  0.80369734095365 0.05582747777390382 -0.2544579500276899  0.7770720082000934 0.099997 -0.208335  0.8267025743325354 0.099997 -0.2529848955513617  0.7126818074427668 0.099997 0.299998  0.7351842769839939 0.099997 0.2568624209434026  0.7532825193934493 0.05198878914210821 0.2572627175133517  0.6898841679344432 0.099997 0.2566942750310398  0.5512896053527119 0.06544958886988633 0.1991173392981411  0.5366429239307274 0.03125304348134219 0.1988308740199347  0.594166 0.04831715751448887 0.1544106250004092  0.594166 0.0499975 0.208332  0.5532624613538433 0.05519347363647901 -0.007182261117347761  0.4991571318777174 -0.01197373792689232 -2.039488320129679e-06  0.5193147123685216 0.04941444169572901 -0.04098454666946158  0.5391130379760665 -0.008192461897003758 -0.04611101027429841  0.6450119552831044 -0.04512959454590205 -0.300002  0.6448901086301205 -2.000000000008939e-06 -0.300002  0.6002020222778188 -0.03978314337077721 -0.300002  0.6177426417409204 -0.05540417380128951 -0.2582304684309168  0.03567945439381577 0.04663417272659919 0.05834505195236899  0.05269823674429353 -0.03447700565876799 0.03458315740677005  -0.010002 -0.008849930035260845 0.04599862447611543  0.04429486734649415 0.0306227552076551 0.009898555427849454  0.5471029244096792 0.099997 0.1041654495359851  0.489999 0.099997 0.099997  0.5404369900733013 0.099997 0.06249878921124605  0.489999 0.0499975 0.099997  0.8425511270085007 -0.06342360744616558 -0.2463132975116334  0.8773405130049017 -0.03832187178443824 -0.300002  0.8183685321248708 0.002371349709651326 -0.2550978011117899  0.8719440000000001 -1.999999999995061e-06 -0.208335  0.753374133857263 -0.03655653892520883 -0.208335  0.7532845659742894 -0.05199348511412764 -0.2572654898057042  0.7770720082000934 -0.100001 -0.208335  0.730490759225105 -0.100001 -0.208335  0.8719440000000001 0.099997 -0.1620385822375755  0.9331684104306693 0.099997 -0.1384408373002407  0.8719440000000001 0.04070505337430975 -0.1477099935821171  0.9324629385996218 0.099997 -0.1846171840970832  0.7070827950757328 -1.999999999995708e-06 0.208332  0.6669294064807567 0.05464310268344942 0.2555405017568416  0.6531079057212283 0.04312867237465284 0.208332  0.6386656397406156 0.01729648161974471 0.2458927358369098  0.5505601950180936 -0.0560319853330704 -0.04259524231615089  0.4928997773011459 -0.100001 -0.03232945076602756  0.5404363509628632 -0.100001 -0.06250131078873099  0.5421226330945905 -0.100001 -0.02083459095111202  0.9333166432785889 -2.000000000008939e-06 0.2511453503273068  0.99 -1.999999999995061e-06 0.1846135851336579  0.99 -0.04125305955859043 0.2397790953002114  0.8857676467930672 0.05706340032517401 0.2595195969524484  0.9281211293340061 0.0394623218491283 0.299998  0.8719440000000001 0.0499975 -0.208335  0.934132942339067 0.03275520442967821 -0.2003512098631835  0.932719914856644 0.099997 -0.2319566053998655  0.9333164616841865 -1.999999999995061e-06 -0.2511491171404286  0.8857683414566837 0.05706294939291581 -0.2595230450887696  0.05528021452591141 -0.03522783809734908 -0.03522783809734908  -0.010002 -0.033335 -0.100001  0.04241717567788606 -0.100001 -0.100001  0.02768204368628828 -0.100001 -0.05764568702381817  0.932719914856644 -0.100001 -0.2319566053998655  0.99 -0.04125282306433747 -0.2397828898535183  0.99 -0.100001 -0.2538480664396273  0.8425511270085007 0.06341960744616559 -0.2463132975116334  0.8084724816883728 0.0376003315986074 -0.208335  0.7372581821980445 -0.02247929969461462 -0.300002  0.7126818478841683 -0.100001 -0.300002  0.7581364842478047 -0.100001 -0.300002  0.842551124233398 0.06341974372982752 0.246310054688709  0.8267025392587963 0.03909052851307273 0.299998  0.8499637914087588 0.099997 0.299998  0.7807904007587781 -2.000000000029756e-06 0.299998  0.7372581466392354 -0.02247933335042127 0.299998  0.7416154400158751 0.02247533335042132 0.299998  0.7532825193934491 -0.05199278914210823 0.2572627175133517  0.7070828163254563 -0.04518149739183 -0.208335  0.7070828163254563 -2.000000000002e-06 -0.208335  0.689884207011743 -0.03496901282234403 -0.300002  0.6531078083484511 -0.04313275417628172 -0.208335  0.6898841679344432 0.03496508134436738 0.299998  0.6448900736101258 -2.000000000029756e-06 0.299998  -0.010002 -0.100001 0.03333100000000001  -0.010002 -0.04381026797011119 0.01542299250245129  0.03526947768290638 -0.100001 0.00143821389165899  -0.010002 -0.100001 -0.033335  0.8719440000000001 0.02226585537131306 -0.001958410951226017  0.9308134518533486 -6.244758292906633e-05 0.02881114209194687  0.8719440000000001 -0.03382087579558583 0.04629504989037532  0.8719440000000001 -0.02226985537131307 -0.007353106410710035  0.7532845659742894 0.05198948511412759 -0.2572654898057042  0.7807904398629505 0.04495259938922925 -0.300002  0.7807904398629505 -2.000000000002e-06 -0.300002  -0.010002 -0.03671443841075989 -0.03671443841075989  -0.010002 -0.100001 -0.100001  0.8425511242333976 -0.06342374372982752 0.2463100546887088  0.8719440000000001 -0.100001 0.208332  0.8242230759427931 -0.100001 0.208332  0.8719440000000001 -0.0500015 0.208332  0.1964492684743627 0.099997 -0.100001  0.1714497870937168 0.0437476074026841 -0.100001  0.1456428099150674 0.099997 -0.100001  0.6002019940110424 0.099997 0.2582038806131837  0.594166 0.099997 0.208332  0.644890073610126 0.099997 0.2524501245104825  0.6105333370263468 0.05240203713685519 0.262105802119716  0.594166 -0.100001 -0.04166796194848049  0.3669489620421969 -0.002526879531384349 -0.04385475376244813  0.2965038427543248 -0.03724570059909453 -0.03736349879665699  0.3214371864210901 0.03217561758086444 -0.100001  0.3214371864210901 -0.03217961758086449 -0.100001  0.1753540602536855 0.05902595959647779 0.05902596176943971  0.221982807330928 0.03138455784519789 0.099997  0.1964489846133967 0.099997 0.099997  0.1714495047040024 0.04374757109775883 0.09999699999999997  0.4424178692300237 0.099997 0.099997  0.4271328420772935 0.099997 0.04317015017749617  0.4244694441939179 0.03271387615563363 0.099997  0.3942991897422644 0.099997 0.099997  0.99 0.0499975 0.299998  0.551230308149386 -0.06545345119617427 -0.2194338875208286  0.5750694450154605 -0.06436608458900969 -0.2544104222078045  0.5486311448765313 -0.04305471568561761 -0.300002  0.537471427920986 -0.03125714980479777 -0.2111469095895019  0.7533741125632002 -0.03655674626347674 0.208332  0.7533741125632002 0.03655274626347671 0.208332  0.8183685652666123 0.002371375007041444 0.2550942873363796  0.8084723502225908 -0.03760419998735436 0.208332  0.9363761827611414 -0.02530180376411023 -0.2003877915649004  0.8719440000000001 -0.04070905337430976 -0.1477099935821171  0.9245677563966322 -2.000000000002e-06 -0.1509243188395902  0.5544616195896394 -0.04888945133483192 -0.1741679959180904  0.594166 -0.05000150000000001 -0.208335  0.594166 -2.000000000008939e-06 -0.208335  0.3456432099150673 -0.100001 -0.100001  0.3703579339182383 -0.04427036621255923 -0.100001  0.347779381696792 -0.05878674212832368 -0.05017410542970204  0.3967106046641271 -0.05318902136574899 -0.04836696190321203  0.3942993789829083 -0.100001 -0.100001  0.7807904007587783 0.04495266670084248 0.299998  0.7581364438064031 0.099997 0.299998  0.5383272314775834 0.005151656830495843 0.2498976047152209  0.5555239050421735 0.03089807944121666 0.299998  0.6026714898380514 0.02257562554450223 0.299998  0.5628289471873266 0.04684778952711851 0.2546770574816141  0.99 -0.100001 0.2538442412526804  0.9430152388445585 -0.100001 0.299998  0.9327200206657569 -0.100001 0.2319530259256584  0.09639716671619625 0.001301749765059874 2.446425702402832e-06  0.09118262201113644 0.04535145200737641 0.04535145215360838  0.1333554937085684 -0.03789364646932631 0.03652027757317189  0.1618766368416752 0.02740815222350681 0.03171343720748318  0.489999 -0.100001 -0.2019767133584615  0.489999 -0.03489684871407006 -0.2341381963021422  0.489999 -0.03062032721063686 -0.1706137338103019  0.8267025743325354 0.03909041216187852 -0.300002  0.8719440000000001 -2.000000000002e-06 -0.04629761677627665  0.9307841414503651 -2.000000000022148e-06 -0.08225033168327092  0.9268572278445665 -0.01770875198285768 -0.02672817539882912  0.8719440000000001 -0.04453771074262607 -0.0462976167762767  0.4073036084539479 -1.999999999981183e-06 -1.970993750405325e-06  0.4574578940190054 0.03747849437846357 0.03209935356767831  0.4491795486200956 -0.02539180932735165 0.04132754395582107  0.5437948463354592 8.607859373797877e-05 -0.1536430776006274  0.5396897560840723 0.05501588725957789 -0.1400092885408404  0.489999 0.03271373680830891 -0.1665396837062293  0.489999 -1.999999999981183e-06 -0.100001  0.548631
[...]
<PointData  Vectors="f_15">
<DataArray  type="Float64"  Name="displacements"  NumberOfComponents="3" format="ascii">-7.7671141390101686e-02 -5.1707764447558049e-02 -3.3190726502013596e-01  -9.4477843512775245e-02 -4.8794327608842739e-02 -3.3246228373251124e-01  -7.5797806477670093e-02 -4.7258196255760589e-02 -3.1528312771153433e-01  -7.9191208544380262e-02 -5.0427324225167998e-02 -3.2817625231996922e-01  -3.5113787345059370e-02 -1.4284909467699324e-02 -1.5150493478802882e-01  -4.0571734377143696e-02 -1.3970694684228844e-02 -1.5065533682826637e-01  -3.1263681087254989e-02 -1.1452561274456211e-02 -1.2781405390539580e-01  -2.5188895314298007e-02 -1.4896174579439635e-02 -1.4899623118114413e-01  -2.9755754755921661e-02 -8.2038591586610643e-03 -1.0768091668750970e-01  -1.1097771599132991e-02 -6.7894858596464587e-03 -8.7446615503244396e-02  -1.1394338636851556e-02 -8.7840877229756528e-03 -1.0092985945549210e-01  -2.4927514117845709e-03 -1.0794559858948427e-02 -1.1015561930138244e-01  8.9080197163346947e-02 -7.1433119731433098e-02 -2.9821761531081131e-01  9.8057303146120378e-02 -8.0999963119074495e-02 -3.2090925407180965e-01  1.1693540009030115e-01 -7.7626297878285941e-02 -3.0232726637888102e-01  8.3863524664206518e-02 -8.0027520682496106e-02 -3.2486641631938090e-01  -7.4053695548192671e-03 -8.4080211330361245e-04 -2.5360990353293564e-02  -2.2272454799396761e-02 -1.2343026091504747e-03 -3.2594790357507113e-02  -1.1072072454037759e-02 -2.0631109113709968e-03 -3.5137682489292783e-02  -4.9846007697453730e-03 -1.0939437137045798e-03 -2.0140987706670881e-02  3.7478012679277771e-02 -6.4006819403089735e-02 -3.0353028903675738e-01  1.6352171657412769e-02 -6.9189396956215524e-02 -3.2872393385383686e-01  2.2019969033353456e-02 -6.9116892971997648e-02 -3.2587550816518934e-01  3.4355745806795748e-02 -7.2626919237866933e-02 -3.2853442551499351e-01  -7.3176146853832308e-02 -3.1918279010786768e-02 -2.5554188635381297e-01  -9.7315472098095657e-02 -2.7684911296845988e-02 -2.4914321596953787e-01  -7.2635822248594911e-02 -2.7407262068835786e-02 -2.3487801633058300e-01  -9.2525924952646665e-02 -2.9901187845778554e-02 -2.5681991283052663e-01  1.1968928486139292e-01 -4.3714558037228075e-02 -1.9876395523660564e-01  1.0020094014280934e-01 -4.4147706477219120e-02 -2.0909832350474727e-01  9.4664434774246159e-02 -4.6508816527352198e-02 -2.2069914254225137e-01  9.9343534495755323e-02 -3.7955938808457421e-02 -1.8783246453145380e-01  6.9376151876121298e-02 -1.9435427928331941e-02 -1.3084772082726884e-01  6.6094266903752918e-02 -1.8120256519910137e-02 -1.2647689287391631e-01  5.1612740128118367e-02 -2.1722529454282834e-02 -1.4693313765246732e-01  7.1264849370459141e-02 -2.3701777069240686e-02 -1.4774558092061987e-01  -1.6380842610786881e-03 -1.4176802637931515e-02 -1.3144191264029806e-01  -2.8558194184763819e-03 -1.1375598855696840e-02 -1.1434356389209044e-01  -1.2836381070899716e-02 -1.1500048021741366e-02 -1.1980009382704282e-01  -1.7386747639738097e-02 -1.2503285563180321e-02 -1.2825349437293423e-01  -1.2667905612625355e-01 -1.2476608622667961e-02 -1.7936415626302038e-01  -1.2306028540920504e-01 -1.2403499227741520e-02 -1.7752342039789559e-01  -1.2561921592568467e-01 -9.2439138911306860e-03 -1.5790258015527900e-01  -1.0767710539473682e-01 -1.2082485222224878e-02 -1.6656663002495484e-01  2.4389554695025593e-03 -4.4528653962345397e-04 -2.2127600325226628e-03  1.6818741672782881e-03 3.1859353778114448e-04 -3.2693710341213074e-03  0.0000000000000000e+00 0.0000000000000000e+00 0.0000000000000000e+00  3.8487012571946977e-04 5.2200568667274757e-05 -2.2317216183975674e-03  3.6997517488033725e-02 -1.6598043490706302e-02 -1.2834667925911292e-01  3.5033909773408416e-02 -1.3030244894274772e-02 -1.0853234646767898e-01  2.3196440542228618e-02 -1.5167608314389108e-02 -1.2590182049122034e-01  3.2241945933373588e-02 -1.2920127308693106e-02 -1.0980240811327770e-01  -1.0491068200632439e-01 -3.1828038882065625e-02 -2.7285121227222814e-01  -1.2476357054658416e-01 -3.2083622962412663e-02 -2.8573290180864758e-01  -1.0259850894556816e-01 -2.8960332336509277e-02 -2.5866466639527691e-01  -8.3700873173372686e-02 -3.6628544272189111e-02 -2.8177876430010307e-01  -8.4153886779408146e-02 -2.5563871214981011e-02 -2.3065438375766076e-01  -1.0795769403748458e-01 -2.3119163483097786e-02 -2.3153747412632400e-01  -9.0094174480207637e-02 -2.8022119270627612e-02 -2.4494475626049070e-01  -8.9080475786640009e-02 -2.3765254831148400e-02 -2.2281801552455596e-01  -5.6714287613059286e-02 -3.9050755614332799e-02 -2.7636071855554334e-01  -4.7989563304507980e-02 -4.7132945531673139e-02 -2.9913285810852969e-01  -5.7682126044808019e-02 -3.9885769935919711e-02 -2.8016495862122054e-01  -6.5006373754198044e-02 -4.4192782998765744e-02 -2.9894058658950512e-01  6.1652936965146114e-02 -3.6480508951575473e-02 -2.0269323618868071e-01  9.2376713436159427e-02 -3.4449192652153598e-02 -1.7995058889891838e-01  6.9214607139257187e-02 -2.9964965539964920e-02 -1.7440564339542244e-01  8.2992042223658746e-02 -3.0347854270470265e-02 -1.6862873912930301e-01  -1.8685494017579529e-02 -1.3201403939838850e-02 -1.3343089759257404e-01  -1.7147549506940109e-02 -1.0681147010700859e-02 -1.1395628293754122e-01  -2.7464371260085985e-02 -1.2171936284730888e-02 -1.3115925620434751e-01  -1.3843465529959824e-02 -1.3273964521718274e-02 -1.3144267849071190e-01  8.2375851783128146e-02 -7.2817566678195778e-02 -3.0558159456861922e-01  5.6037232098814657e-02 -7.5853365763311961e-02 -3.2713425494340143e-01  7.1903697593528784e-02 -8.0054382233114285e-02 -3.3047787120401928e-01  9.4219042960310584e-02 -6.6723997357549608e-02 -2.8256969198473758e-01  1.0815875407115803e-01 -7.5513485222830426e-02 -3.0065471817578943e-01  -7.9003779570028423e-02 -3.6549061248901282e-02 -2.7891408643356586e-01  -7.7874949332522356e-02 -4.3460527152714631e-02 -3.0363149553960134e-01  -8.3549132269689519e-02 -4.1477146666888190e-02 -2.9918923236351963e-01  -1.0104593126422820e-01 -4.0415766438269787e-02 -3.0532578836080554e-01  -9.8820382191913858e-02 -3.5077510950538703e-02 -2.8374637964378713e-01  -2.7872541849299007e-03 -2.6980246854031210e-04 -3.7881935848687936e-03  0.0000000000000000e+00 0.0000000000000000e+00 0.0000000000000000e+00  -6.4941164101221553e-03 -1.5681189283461396e-03 -4.7359798895039683e-03  -2.4604700337608550e-03 -8.6134098544704183e-04 -2.1009063242253875e-03  -1.0333827501722601e-01 -4.1548502320981687e-02 -3.1103562928533424e-01  -1.0069077940786977e-01 -4.6781252326148978e-02 -3.2934058610205075e-01  -1.1205096025899204e-01 -4.5911482823274972e-02 -3.3296840135552336e-01  -9.3027862943117337e-02 -3.1703273977178502e-02 -2.6556275542557467e-01  -7.8696581196228257e-02 -3.0463081821050758e-02 -2.5199084374529801e-01  -1.2522363084638735e-01 -1.9703751857911237e-02 -2.2241617739072281e-01  -1.3169263977564891e-01 -1.7766169925402229e-02 -2.1453153358311652e-01  -1.3167721558102422e-01 -2.1382483726684515e-02 -2.3633509430513777e-01  8.9971087259394983e-02 -5.9406831542729611e-02 -2.6327609633324278e-01  1.1040930413755698e-01 -6.1038520477642209e-02 -2.5764499981078898e-01  1.1907482929348043e-01 -6.4095902651492287e-02 -2.6364418784108329e-01  1.0541723835139924e-01 -5.4383348118897737e-02 -2.3917965223811244e-01  1.0222938380729042e-01 -4.7322372287626771e-02 -2.1963383075742743e-01  1.0962082306237930e-01 -4.7907477401574153e-02 -2.1783721738230963e-01  7.5989994580206388e-02 -4.6865307106330710e-02 -2.3053679647317851e-01  -8.4090908409654594e-02 -2.1435092461911758e-02 -2.0907461989473899e-01  -8.0494637706776173e-02 -2.1341296080514240e-02 -2.0707631470246685e-01  -1.2619102389397110e-01 -1.5882202452121356e-02 -2.0050954580634947e-01  -8.3466295657143655e-02 -1.6846636113663226e-02 -1.8304266723383225e-01  1.1070533409081221e-01 -4.0194461561483888e-02 -1.9217438375209059e-01  1.0532226138010604e-01 -3.4023853874114787e-02 -1.7294919703733755e-01  0.0000000000000000e+00 0.0000000000000000e+00 0.0000000000000000e+00  0.0000000000000000e+00 0.0000000000000000e+00 0.0000000000000000e+00  -4.2734078934979534e-04 -2.0180447469175713e-05 -2.0234945267366428e-03  0.0000000000000000e+00 0.0000000000000000e+00 0.0000000000000000e+00  -8.1276292352197525e-03 -4.8243838481242980e-02 -2.8201845535747422e-01  -5.4726640367909392e-05 -5.7322101669499505e-02 -3.0436800614010434e-01  1.8126078412685743e-03 -5.0944524971468508e-02 -2.8562340620629617e-01  -1.5367597675648575e-02 -4.7891472683531680e-02 -2.8498761638693137e-01  -9.8893488353785516e-02 -2.3029170784534928e-02 -2.2635949603192279e-01  -1.1858713026050942e-01 -2.3294893256534260e-02 -2.3927271062498331e-01  -1.2286776477836486e-01 -2.3290347169350280e-02 -2.4167093529365738e-01  0.0000000000000000e+00 0.0000000000000000e+00 0.0000000000000000e+00  0.0000000000000000e+00 0.0000000000000000e+00 0.0000000000000000e+00  7.0543618033662506e-02 -5.9140221570808477e-02 -2.7327525997517732e-01  5.0010527970652530e-02 -6.0605142670366562e-02 -2.8864532056513109e-01  4.8167044889632839e-02 -5.3399535667037361e-02 -2.6728226316218884e-01  5.7334989524410414e-02 -6.0808554885786813e-02 -2.8503769318380601e-01  -1.8264764265557353e-02 1.7027868830650069e-03 -2.5092201820420934e-02  -1.7261809652669380e-02 7.9415135962055251e-04 -2.1236811350684674e-02  -1.4604905711480974e-02 1.6769855524499937e-03 -1.5151604199836098e-02  9.7850602338112214e-02 -2.6779607123630339e-02 -1.4863005824725989e-01  7.6489518360093267e-02 -2.3615989434857990e-02 -1.4586675416077707e-01  9.6229933726476369e-02 -3.1645945155001846e-02 -1.6765945728660450e-01  9.4320599816113154e-02 -2.7923280612737932e-02 -1.5491624152345365e-01  -2.0958474867543892e-02 -1.5106796508635376e-02 -1.5009080495496760e-01  -1.4468382224650661e-02 -4.9158567046067485e-03 -7.0935747472417543e-02  -1.1734105504932535e-02 -3.2522999778758005e-03 -5.0963680670390525e-02  -2.7242491752656344e-02 -2.4244313890635256e-03 -5.7498383634502097e-02  -2.9547899799495219e-02 -3.0690820731268712e-03 -5.8666032146732869e-02  1.0130549851758916e-02 -2.0208731742522223e-03 -2.0712403516150928e-02  2.0384204962685590e-02 -3.3388081725354043e-03 -3.2045349263628647e-02  2.0223584353460621e-02 -3.7690137484036055e-03 -2.5210564040400601e-02  1.6753156955315329e-02 -2.1015032471053421e-03 -2.1078688470992982e-02  3.3612468817148855e-02 -1.0917226724839713e-02 -9.3203437463703992e-02  1.5371536341598734e-02 -9.0289044937010600e-03 -8.7733552549683957e-02  2.9795662420779929e-02 -9.7042665519393289e-03 -8.8724011264735503e-02  3.1369566215707384e-02 -9.0947031142389282e-03 -7.7896457259394133e-02  1.0952892176373784e-01 -8.4387816786734127e-02 -3.2434594307658476e-01  -9.0012672311631653e-02 -8.5959824851236429e-03 -1.3620563913330641e-01  -1.0610246230182714e-01 -9.1003928382058473e-03 -1.4699877022899258e-01  -1.2524748991839366e-01 -5.7916330173631292e-03 -1.3458984772240851e-01  -8.3826141641436785e-02 -7.9352329464704285e-03 -1.2903178807144064e-01  5.3498184992238990e-02 -4.3271616127059140e-02 -2.2998249598192694e-01  6.6628191944811149e-02 -4.3020967447265843e-02 -2.2306563726124090e-01  8.4506382800664123e-02 -5.6592860892549980e-02 -2.5735274870190894e-01  5.5973694488732482e-02 -5.1236625557314883e-02 -2.5547230130765564e-01  -8.3718640562274876e-02 -4.3763674477140288e-02 -3.0788911311023304e-01  -6.6340685685243136e-02 -4.0150122866609433e-02 -2.8527959282104104e-01  -6.3198783555572818e-02 -4.5433831305215208e-02 -3.0201445903648022e-01  -6.8699210199967067e-02 -1.0032581369507755e-02 -1.3668638499014701e-01  -8.3913277464467348e-02 -1.1837231863822793e-02 -1.5466540549476757e-01  -8.0326771780432391e-02 -1.1937044718233579e-02 -1.5306580215736645e-01  -3.2683101272639882e-02 -4.8393865953391801e-03 -6.6818655322730916e-02  -3.2381326932500981e-02 -4.4504260714152456e-03 -7.3447865574536308e-02  -1.7558235880805750e-02 -4.6396485383365304e-03 -6.6111826385549854e-02  -1.8401106043220830e-02 -6.2695284213473397e-03 -8.1183953861118277e-02  -3.5550518264906905e-02 -5.8813522643015323e-03 -8.1712877547132745e-02  1.1256426795695655e-01 -5.4070313103811364e-02 -2.3512255394373593e-01  1.2042945910397364e-01 -5.0150584610402477e-02 -2.2001897970466539e-01  8.3263442853409739e-02 -1.9895442051755606e-02 -1.2767491121477914e-01  1.0672374816269722e-01 -2.3552865617509178e-02 -1.3386843878962132e-01  1.0657320147546191e-01 -2.8618369897142004e-02 -1.5302901470554964e-01  9.0004694296335508e-02 -2.2526706169080028e-02 -1.3589551965628710e-01  6.9200987905489675e-02 -8.1109012825416632e-02 -3.3479382902199573e-01  8.7741022317263620e-02 -7.7816506557278495e-02 -3.1649190454259030e-01  6.0220342016115945e-02 -7.1262907296876593e-02 -3.1227531883994053e-01  -5.8672304831331628e-04 -1.0372902662917335e-04 -8.0699829401450780e-03  4.4268475574760829e-03 -8.6560505959789355e-04 -7.2914890186040887e-03  3.7617274185204972e-03 -5.3966804814801215e-04 -1.3848359288594356e-02  4.7002837114327274e-03 -1.2398273791627409e-03 -1.8444348143105999e-02  -8.4150505886309762e-02 -5.4496598335178137e-03 -1.1062510090876211e-01  -9.4502166296005316e-02 -3.9749043722364999e-03 -1.0819572306540515e-01  -6.6182042392984489e-02 -6.3761576123796977e-03 -1.0913772077667851e-01  -1.1822965727130626e-01 -2.7392226365098277e-02 -2.5996937462297692e-01  -2.6294022883994482e-02 -4.5739669512834556e-02 -2.8342774091823630e-01  -3.8847072441310922e-02 -5.0351425032276541e-02 -3.0426804253989259e-01  -2.1502378804084909e-02 -5.3332586833909956e-02 -3.0406544858396450e-01  -3.1404565771229714e-02 -4.5791559536096330e-02 -2.8632927301716948e-01  -2.1676457144547520e-03 -7.1183970394859113e-03 -8.3472753685344875e-02  9.4075308106987676e-03 -9.8857915356816272e-03 -9.8979363207719440e-02  9.3866398744205503e-03 -9.6147020282279713e-03 -9.7778399522308920e-02  -5.6888685364277179e-02 -1.0073589187263371e-02 -1.3077719705909380e-01  -4.8193926767822901e-02 -1.0183457880430983e-02 -1.2748399093695451e-01  -6.0594384644602262e-02 -6.2103828609550386e-03 -1.0769233895250466e-01  -3.5230848708530882e-02 -8.5566294792857652e-03 -1.1016915771519545e-01  9.8287504620745272e-02 -2.2748651983509543e-02 -1.3355919263534638e-01  7.7228289432889133e-02 -2.3982904113414860e-02 -1.4434300810005771e-01  8.3058620913334977e-02 -2.1839422716720198e-02 -1.3439204882834199e-01  7.2763311670600267e-02 -2.0907759384826585e-02 -1.3499768794419209e-01  5.7851568714460518e-02 -6.9618104557267718e-02 -3.0873675049782651e-01  1.0829449654982720e-01 -1.6692501101193913e-02 -1.0750199816614991e-01  1.1161511148534456e-02 -1.3312798390460911e-02 -1.2073873187685787e-01  -6.2792000086129098e-04 -1.3049457091621816e-02 -1.2338055625644333e-01  1.3751925526533211e-02 -1.0324485068846558e-02 -1.0039344779377685e-01  -6.8298787956845349e-03 -9.3674007735355946e-03 -1.0071899574323724e-01  9.9479027775569898e-02 -2.8490370947748634e-02 -1.5405281037234209e-01  1.8914668485480020e-02 -2.1779801820747706e-03 -3.2538086624935417e-02  2.3026278146084361e-02 -4.1024106141906019e-03 -4.4276882700949600e-02  9.9468805092612685e-03 -2.7694493352898269e-03 -3.8016167219940653e-02  2.1565806928606625e-02 -3.6255038764247032e-03 -4.4522869529375279e-02  4.9536168857001418e-03 -3.9158983279103483e-03 -5.1107302630787638e-02  4.2502893720468716e-03 -3.2523697266285444e-03 -4.4262716139691842e-02  -1.3012641355711108e-01 -3.8406088238573624e-02 -3.1504447732172003e-01  -1.2551497880692952e-01 -1.8012042002371728e-03 -1.0867465090177340e-01  -1.0598833379792429e-01 -7.4717873861308631e-03 -1.3618587693591128e-01  -1.2914712202436421e-01 -4.8188125391692991e-03 -1.2975118231374272e-01  -7.0597470814820693e-02 -9.3430572920378107e-03 -1.3212742127409446e-01  -5.6324482520579207e-02 -1.3133548108844701e-02 -1.4815352403829971e-01  -7.6896629532441571e-02 -1.2034820337364464e-02 -1.5107192784875986e-01  -7.3178571757922639e-02 -1.2278981208098292e-02 -1.4934943251380300e-01  6.9321444603640883e-03 6.5405538664910460e-07 -5.4656842747164928e-03  -9.2467156938378092e-02 -4.6829984636449565e-02 -3.2456649167590623e-01  -1.2010872097643074e-01 -4.3196966073015410e-02 -3.2714836818745385e-01  1.0099637723931336e-01 -4.0455228933037220e-02 -1.9622276102414518e-01  5.4707319705509162e-02 -3.7201814919706595e-02 -2.0628713811889376e-01  -1.7760322610111387e-02 1.6288657041438475e-04 -2.1934254626478047e-02  -1.0825117093948565e-02 -1.0916314875982094e-03 -1.9463316431153517e-02  6.4352413046700363e-02 -6.1025968028564040e-02 -2.8129206426432074e-01  -1.2898764787550188e-01 -1.8987833702484563e-03 -1.1016687200657034e-01  -1.0686504743299539e-01 -3.4785227626733064e-03 -1.1025980667532378e-01  6.3461825593487944e-03 -8.7832943963612221e-03 -9.1815879479724458e-02  1.2598244686567707e-02 -8.1640737020123606e-03 -8.5629719614808850e-02  4.7840975941488728e-02 -5.7326448236868624e-02 -2.7951045973248384e-01  7.1969966247397071e-02 -6.1162380405505243e-02 -2.7761820231369588e-01  5.9120100428683132e-02 -6.7335403680282402e-02 -3.0156346926937100e-01  9.2226904583038324e-02 -2.6071389155441813e-02 -1.4701018788888529e-01  9.1737681878076280e-02 -2.1166982661019011e-02 -1.2962542858808573e-01  2.6437312764736084e-02 -1.6281326408724525e-02 -1.3139645237916614e-01  4.5520626058524929e-02 -1.6695282751259366e-02 -1.2732294632117425e-01  -3.9733222352826718e-02 -1.4360971381561236e-02 -1.4722570216197264e-01  -5.4749074935283353e-02 -1.3409959628786961e-02 -1.4975101535944105e-01  2.5397521907929241e-02 -7.0390131020785698e-03 -7.2965998869475454e-02  2.7215953666436966e-02 -9.4767746895403886e-03 -8.9895375784767556e-02  1.0412102958072237e-02 -6.3144418271472592e-03 -7.1574257348074308e-02  2.6922742140437224e-02 -7.3495232456583853e-03 -7.2503027781546894e-02  9.1401812197845550e-04 -6.5971685282915471e-02 -3.2810338512198584e-01  -1.3075582869432216e-02 -6.2556173694727019e-02 -3.2682850889617848e-01  1.0135711681718189e-02 -6.5809368683538386e-02 -3.2342562268737440e-01  9.6433514144905363e-02 -7.5695099891273210e-02 -3.0629973919287512e-01  7.7522788100143528e-02 -6.6838221841971662e-02 -2.9175050137237191e-01  8.7998697838879480e-02 -7.1226421196543058e-02 -2.9818882381455103e-01  9.7420412881128751e-02 -6.8355425100393927e-02 -2.8591980085264174e-01  -2.1727152469568328e-02 -4.7273359516094452e-05 -3.1828533259614857e-02  -9.3014836153925820e-02 -1.4404530101512518e-02 -1.7333597024104758e-01  -1.1490578273549190e-01 -1.0751927600971859e-02 -1.6296468005583126e-01  -1.0121502461928762e-01 -1.1353695817897764e-02 -1.5907916092543078e-01  -9.5762415412395496e-02 -1.0806029456462574e-02 -1.5247810274199752e-01  7.8478642905504409e-02 -1.8885278901175494e-02 -1.2523200544546742e-01  5.6118323752821102e-02 -1.9433249235933491e-02 -1.3227630066348953e-01  -9.8035502776139441e-02 -8.2411544985769841e-03 -1.3804187024271300e-01  -7.4402987854384373e-02 -8.1479951467380782e-03 -1.2627972222251185e-01  -9.9119517288473583e-02 -6.7104967930530736e-03 -1.2858958804698473e-01  -5.6649890672522622e-02 -5.1879089885386941e-02 -3.2024953222734664e-01  -7.4152100830036011e-02 -4.8950059794501843e-02 -3.2078061863251828e-01  -1.1113923943695896e-01 -1.7935363553250459e-02 -2.0335058628001784e-01  4.7147598803184768e-02 -4.6364341400676232e-02 -2.4522544944655797e-01  4.7250972975374332e-02 -4.1018711352293451e-02 -2.2171934773734797e-01  -8.8203856480990994e-02 -1.9563606725249573e-02 -2.0055791126057507e-01  -1.0867715340544690e-01 -1.4521042517869558e-02 -1.8141308920556548e-01  2.3636007029462430e-02 -4.8115490920141472e-03 -3.6396225588266294e-02  7.7874028279891136e-03 -2.5137532924318908e-03 -3.0412334279449213e-02  2.3610595751985663e-02 -4.7307774885537680e-03 -4.3680589806670757e-02  -7.1942538049164215e-02 -9.3256229226499465e-03 -1.3327945429892193e-01  -5.0567115164073022e-02 -1.0650143526798052e-02 -1.3220837772945546e-01  -6.1761751993455127e-02 -7.4205180245804402e-03 -1.1142122010637522e-01  -4.2208371983180094e-02 -1.1559508499048250e-02 -1.3427745128537802e-01  5.1377108075499514e-02 -2.9747680677835071e-02 -1.7516861244842399e-01  7.0906436685470781e-02 -3.2477142