<?xml version="1.0"?>
<VTKFile type="UnstructuredGrid"  version="0.1"  >
<UnstructuredGrid>
<Piece  NumberOfPoints="651" NumberOfCells="2156">
<Points>
<DataArray  type="Float64"  NumberOfComponents="3"  format="ascii">0.99 -0.100001 -0.1615402430221451  0.99 -0.100001 -0.207694147447009  0.9521624865543893 -0.05406454833263453 -0.1701944187143542  0.99 -0.03539775852755622 -0.1846171840970832  0.594166 -0.100001 -0.08333469170492042  0.594166 -0.04980372711844853 -0.1041680504639766  0.5334338025105574 -0.06342284424240664 -0.07864732893802406  0.594166 -0.04011233307461787 -0.06250131078873099  0.489999 0.099997 -0.100001  0.4271328872233148 0.099997 -0.04317422309309727  0.4632465908208861 0.03271373680830891 -0.03426575495798884  0.4951287547954432 0.099997 -0.0163141586472239  0.9327200206657569 0.099997 0.2319530259256584  0.99 0.099997 0.2538442412526804  0.9430152388445585 0.099997 0.299998  0.99 0.04124905955859046 0.2397790953002114  0.1968221912376475 0.03787991784600309 -0.0378578959284234  0.2219831130088293 -0.03138859953354571 -0.100001  0.2363095098919704 -0.04130906145324092 -0.04205117908319046  0.1688861500054547 -0.02169815945381112 -0.02346842639208992  0.9283773790901314 -0.0003233329576113769 0.1349446768141005  0.99 -0.04537191931562957 0.09230598023249914  0.99 -0.001917360620506374 0.0923059802324992  0.99 -0.03451295509598104 0.1384597899669557  0.8242230884583917 0.099997 -0.208335  0.80369734095365 0.05582747777390382 -0.2544579500276899  0.7770720082000934 0.099997 -0.208335  0.8267025743325354 0.099997 -0.2529848955513617  0.7126818074427668 0.099997 0.299998  0.7351842769839939 0.099997 0.2568624209434026  0.7532825193934493 0.05198878914210821 0.2572627175133517  0.6898841679344432 0.099997 0.2566942750310398  0.5512896053527119 0.06544958886988633 0.1991173392981411  0.5366429239307274 0.03125304348134219 0.1988308740199347  0.594166 0.04831715751448887 0.1544106250004092  0.594166 0.0499975 0.208332  0.5532624613538433 0.05519347363647901 -0.007182261117347761  0.4991571318777174 -0.01197373792689232 -2.039488320129679e-06  0.5193147123685216 0.04941444169572901 -0.04098454666946158  0.5391130379760665 -0.008192461897003758 -0.04611101027429841  0.6450119552831044 -0.04512959454590205 -0.300002  0.6448901086301205 -2.000000000008939e-06 -0.300002  0.6002020222778188 -0.03978314337077721 -0.300002  0.6177426417409204 -0.05540417380128951 -0.2582304684309168  0.03567945439381577 0.04663417272659919 0.05834505195236899  0.05269823674429353 -0.03447700565876799 0.03458315740677005  -0.010002 -0.008849930035260845 0.04599862447611543  0.04429486734649415 0.0306227552076551 0.009898555427849454  0.5471029244096792 0.099997 0.1041654495359851  0.489999 0.099997 0.099997  0.5404369900733013 0.099997 0.06249878921124605  0.489999 0.0499975 0.099997  0.8425511270085007 -0.06342360744616558 -0.2463132975116334  0.8773405130049017 -0.03832187178443824 -0.300002  0.8183685321248708 0.002371349709651326 -0.2550978011117899  0.8719440000000001 -1.999999999995061e-06 -0.208335  0.753374133857263 -0.03655653892520883 -0.208335  0.7532845659742894 -0.05199348511412764 -0.2572654898057042  0.7770720082000934 -0.100001 -0.208335  0.730490759225105 -0.100001 -0.208335  0.8719440000000001 0.099997 -0.1620385822375755  0.9331684104306693 0.099997 -0.1384408373002407  0.8719440000000001 0.04070505337430975 -0.1477099935821171  0.9324629385996218 0.099997 -0.1846171840970832  0.7070827950757328 -1.999999999995708e-06 0.208332  0.6669294064807567 0.05464310268344942 0.2555405017568416  0.6531079057212283 0.04312867237465284 0.208332  0.6386656397406156 0.01729648161974471 0.2458927358369098  0.5505601950180936 -0.0560319853330704 -0.04259524231615089  0.4928997773011459 -0.100001 -0.03232945076602756  0.5404363509628632 -0.100001 -0.06250131078873099  0.5421226330945905 -0.100001 -0.02083459095111202  0.9333166432785889 -2.000000000008939e-06 0.2511453503273068  0.99 -1.999999999995061e-06 0.1846135851336579  0.99 -0.04125305955859043 0.2397790953002114  0.8857676467930672 0.05706340032517401 0.2595195969524484  0.9281211293340061 0.0394623218491283 0.299998  0.8719440000000001 0.0499975 -0.208335  0.934132942339067 0.03275520442967821 -0.2003512098631835  0.932719914856644 0.099997 -0.2319566053998655  0.9333164616841865 -1.999999999995061e-06 -0.2511491171404286  0.8857683414566837 0.05706294939291581 -0.2595230450887696  0.05528021452591141 -0.03522783809734908 -0.03522783809734908  -0.010002 -0.033335 -0.100001  0.04241717567788606 -0.100001 -0.100001  0.02768204368628828 -0.100001 -0.05764568702381817  0.932719914856644 -0.100001 -0.2319566053998655  0.99 -0.04125282306433747 -0.2397828898535183  0.99 -0.100001 -0.2538480664396273  0.8425511270085007 0.06341960744616559 -0.2463132975116334  0.8084724816883728 0.0376003315986074 -0.208335  0.7372581821980445 -0.02247929969461462 -0.300002  0.7126818478841683 -0.100001 -0.300002  0.7581364842478047 -0.100001 -0.300002  0.842551124233398 0.06341974372982752 0.246310054688709  0.8267025392587963 0.03909052851307273 0.299998  0.8499637914087588 0.099997 0.299998  0.7807904007587781 -2.000000000029756e-06 0.299998  0.7372581466392354 -0.02247933335042127 0.299998  0.7416154400158751 0.02247533335042132 0.299998  0.7532825193934491 -0.05199278914210823 0.2572627175133517  0.7070828163254563 -0.04518149739183 -0.208335  0.7070828163254563 -2.000000000002e-06 -0.208335  0.689884207011743 -0.03496901282234403 -0.300002  0.6531078083484511 -0.04313275417628172 -0.208335  0.6898841679344432 0.03496508134436738 0.299998  0.6448900736101258 -2.000000000029756e-06 0.299998  -0.010002 -0.100001 0.03333100000000001  -0.010002 -0.04381026797011119 0.01542299250245129  0.03526947768290638 -0.100001 0.00143821389165899  -0.010002 -0.100001 -0.033335  0.8719440000000001 0.02226585537131306 -0.001958410951226017  0.9308134518533486 -6.244758292906633e-05 0.02881114209194687  0.8719440000000001 -0.03382087579558583 0.04629504989037532  0.8719440000000001 -0.02226985537131307 -0.007353106410710035  0.7532845659742894 0.05198948511412759 -0.2572654898057042  0.7807904398629505 0.04495259938922925 -0.300002  0.7807904398629505 -2.000000000002e-06 -0.300002  -0.010002 -0.03671443841075989 -0.03671443841075989  -0.010002 -0.100001 -0.100001  0.8425511242333976 -0.06342374372982752 0.2463100546887088  0.8719440000000001 -0.100001 0.208332  0.8242230759427931 -0.100001 0.208332  0.8719440000000001 -0.0500015 0.208332  0.1964492684743627 0.099997 -0.100001  0.1714497870937168 0.0437476074026841 -0.100001  0.1456428099150674 0.099997 -0.100001  0.6002019940110424 0.099997 0.2582038806131837  0.594166 0.099997 0.208332  0.644890073610126 0.099997 0.2524501245104825  0.6105333370263468 0.05240203713685519 0.262105802119716  0.594166 -0.100001 -0.04166796194848049  0.3669489620421969 -0.002526879531384349 -0.04385475376244813  0.2965038427543248 -0.03724570059909453 -0.03736349879665699  0.3214371864210901 0.03217561758086444 -0.100001  0.3214371864210901 -0.03217961758086449 -0.100001  0.1753540602536855 0.05902595959647779 0.05902596176943971  0.221982807330928 0.03138455784519789 0.099997  0.1964489846133967 0.099997 0.099997  0.1714495047040024 0.04374757109775883 0.09999699999999997  0.4424178692300237 0.099997 0.099997  0.4271328420772935 0.099997 0.04317015017749617  0.4244694441939179 0.03271387615563363 0.099997  0.3942991897422644 0.099997 0.099997  0.99 0.0499975 0.299998  0.551230308149386 -0.06545345119617427 -0.2194338875208286  0.5750694450154605 -0.06436608458900969 -0.2544104222078045  0.5486311448765313 -0.04305471568561761 -0.300002  0.537471427920986 -0.03125714980479777 -0.2111469095895019  0.7533741125632002 -0.03655674626347674 0.208332  0.7533741125632002 0.03655274626347671 0.208332  0.8183685652666123 0.002371375007041444 0.2550942873363796  0.8084723502225908 -0.03760419998735436 0.208332  0.9363761827611414 -0.02530180376411023 -0.2003877915649004  0.8719440000000001 -0.04070905337430976 -0.1477099935821171  0.9245677563966322 -2.000000000002e-06 -0.1509243188395902  0.5544616195896394 -0.04888945133483192 -0.1741679959180904  0.594166 -0.05000150000000001 -0.208335  0.594166 -2.000000000008939e-06 -0.208335  0.3456432099150673 -0.100001 -0.100001  0.3703579339182383 -0.04427036621255923 -0.100001  0.347779381696792 -0.05878674212832368 -0.05017410542970204  0.3967106046641271 -0.05318902136574899 -0.04836696190321203  0.3942993789829083 -0.100001 -0.100001  0.7807904007587783 0.04495266670084248 0.299998  0.7581364438064031 0.099997 0.299998  0.5383272314775834 0.005151656830495843 0.2498976047152209  0.5555239050421735 0.03089807944121666 0.299998  0.6026714898380514 0.02257562554450223 0.299998  0.5628289471873266 0.04684778952711851 0.2546770574816141  0.99 -0.100001 0.2538442412526804  0.9430152388445585 -0.100001 0.299998  0.9327200206657569 -0.100001 0.2319530259256584  0.09639716671619625 0.001301749765059874 2.446425702402832e-06  0.09118262201113644 0.04535145200737641 0.04535145215360838  0.1333554937085684 -0.03789364646932631 0.03652027757317189  0.1618766368416752 0.02740815222350681 0.03171343720748318  0.489999 -0.100001 -0.2019767133584615  0.489999 -0.03489684871407006 -0.2341381963021422  0.489999 -0.03062032721063686 -0.1706137338103019  0.8267025743325354 0.03909041216187852 -0.300002  0.8719440000000001 -2.000000000002e-06 -0.04629761677627665  0.9307841414503651 -2.000000000022148e-06 -0.08225033168327092  0.9268572278445665 -0.01770875198285768 -0.02672817539882912  0.8719440000000001 -0.04453771074262607 -0.0462976167762767  0.4073036084539479 -1.999999999981183e-06 -1.970993750405325e-06  0.4574578940190054 0.03747849437846357 0.03209935356767831  0.4491795486200956 -0.02539180932735165 0.04132754395582107  0.5437948463354592 8.607859373797877e-05 -0.1536430776006274  0.5396897560840723 0.05501588725957789 -0.1400092885408404  0.489999 0.03271373680830891 -0.1665396837062293  0.489999 -1.999999999981183e-06 -0.100001  0.548631
[...]
<PointData  Scalars="f_52"> 
<DataArray  type="Float64"  Name="f_52"  format="ascii">3.4474673870516181e-01  3.4904777928945263e-01  3.2761713882209448e-01  3.4127953373526027e-01  1.5606270989561782e-01  1.5653748921423777e-01  1.3203186478074355e-01  1.5186136000714762e-01  1.1163976375937396e-01  8.8236850684396587e-02  1.0166785642223677e-01  1.1047741520211285e-01  3.1915461752808089e-01  3.4510871031054347e-01  3.3299983066996752e-01  3.4471144419880928e-01  2.6013491763292866e-02  3.9388966088391750e-02  3.6393073740886316e-02  2.0425349238045450e-02  3.1235461060054626e-01  3.3620695087888197e-01  3.3374730729115759e-01  3.3813505427534696e-01  2.6759525697546582e-01  2.6875255907486095e-01  2.4711574869331038e-01  2.7451236138339952e-01  2.3598721075926515e-01  2.3586627793926748e-01  2.4431703858272971e-01  2.1554908256041558e-01  1.4906293200581786e-01  1.4369277100824535e-01  1.5705432387989879e-01  1.6563422294710228e-01  1.3205167020579064e-01  1.1475148949656951e-01  1.2070383937722348e-01  1.2982771802149404e-01  2.1956782774646769e-01  2.1636011968658977e-01  2.0163624762574842e-01  1.9846695526643052e-01  3.3183741596240516e-03  3.4491882169863982e-03  5.1373986322914677e-05  2.0766654321295822e-03  1.3447549806811687e-01  1.1405026075297667e-01  1.2885500525049126e-01  1.1498707410875807e-01  2.9392822179819555e-01  3.1314652356680284e-01  2.7962493980981351e-01  2.9594589149819861e-01  2.4687030069069638e-01  2.5636390467138009e-01  2.6232748833256775e-01  2.4100813645666838e-01  2.8474511677832343e-01  3.0644421722101456e-01  2.8863241077472201e-01  3.0904862059437593e-01  2.1417282233077251e-01  2.0491629497440594e-01  1.8986919392174850e-01  1.9013716616873860e-01  1.3504431808751405e-01  1.1560881006807501e-01  1.3455500484566804e-01  1.3276849757094461e-01  3.2459736748456408e-01  3.4033488500953546e-01  3.4738710316226151e-01  3.0504113363348379e-01  3.2820688576271573e-01  2.9213639359995935e-01  3.1634480249044983e-01  3.1323426585079378e-01  3.2403057751320208e-01  3.0237191466721586e-01  4.5506918954823800e-03  1.8477332943446609e-05  8.1901430718880463e-03  3.3504213174237302e-03  3.3027405824959322e-01  3.4740194587996254e-01  3.5420772595523825e-01  2.8303508518267889e-01  2.6569825004330677e-01  2.5580032403466718e-01  2.5222644016694024e-01  2.7117159102525906e-01  2.8433063223859117e-01  2.8677769935528497e-01  2.9606051601735395e-01  2.6679200518068008e-01  2.4654062944821103e-01  2.4816521497860533e-01  2.4698644612283954e-01  2.2595598600122707e-01  2.2254653819786710e-01  2.3686516241593744e-01  2.0151411434937841e-01  2.2478895293136855e-01  2.0547569988426176e-01  4.0238973410223157e-05  -1.6392903951055117e-05  1.9423859640729263e-03  8.4961866644646877e-05  2.8614720315770970e-01  3.0959886182839219e-01  2.9003719277837298e-01  2.8935385704345340e-01  2.4793330554114423e-01  2.6793939775920034e-01  2.7197316492688350e-01  4.0160512897908655e-05  -3.6952206152625848e-05  2.8822662466071497e-01  2.9900724249492439e-01  2.7660073466673446e-01  2.9698903203255200e-01  3.0792179024325555e-02  2.7051220389118662e-02  2.0644145470833240e-02  1.7995313333419019e-01  1.6632531032736825e-01  1.9578076153627572e-01  1.8324649340736213e-01  1.5234055016538811e-01  7.2342847501784199e-02  5.2087865255444364e-02  6.3193847242828782e-02  6.5448088122667170e-02  2.3093475709429996e-02  3.8013137063939495e-02  3.2198722031866779e-02  2.6896171696497693e-02  9.9357357361029075e-02  8.9460692226600858e-02  9.3523110425184131e-02  8.3958268170487918e-02  3.5243526507077466e-01  1.6290141996738061e-01  1.8130952460157007e-01  1.8368140538908367e-01  1.5389582776320204e-01  2.3980428801686712e-01  2.3668949116400734e-01  2.7649014094638241e-01  2.6641067799244428e-01  3.2201479392735577e-01  2.9551155727234152e-01  3.1169153485113882e-01  1.5321540531228006e-01  1.7630942406364641e-01  1.7280138231715605e-01  7.4246126393447895e-02  8.0254597308081377e-02  6.8381463688717406e-02  8.2873628618833198e-02  8.9108139992949351e-02  2.6612495909676409e-01  2.5548952569507016e-01  1.5348710023224790e-01  1.7271516274945373e-01  1.8829663552588810e-01  1.6418278305538536e-01  3.5128069683304436e-01  3.3735061287830459e-01  3.2572069513101742e-01  7.9125814514618142e-03  8.2451569192506131e-03  1.3938563041257639e-02  1.8788995751178442e-02  1.3886812423134895e-01  1.4345759368485989e-01  1.2737674430037657e-01  2.8678805433206284e-01  2.8819782014570688e-01  3.1073761061273347e-01  3.0941420417624027e-01  2.9166180142521947e-01  8.3488845643326648e-02  9.9524441348524451e-02  9.8366736567472191e-02  1.4264115904741920e-01  1.3639679421209230e-01  1.2342975721336143e-01  1.1562235384437068e-01  1.6722799923703643e-01  1.6527364161182753e-01  1.5934904881912418e-01  1.5463969887073806e-01  3.2163218805137717e-01  1.5287197025107993e-01  1.2191232821692420e-01  1.2383955291880246e-01  1.0166011869493902e-01  1.0104928568579419e-01  1.8531426467077627e-01  3.7593349063659076e-02  4.9653617310571968e-02  3.9010934551381563e-02  4.9171078104149647e-02  5.1016570978124821e-02  4.4176302767442867e-02  3.4274494358401686e-01  1.6509540888740040e-01  1.7237842686662108e-01  1.8305384386972201e-01  1.4965728028292483e-01  1.5903971544031870e-01  1.6983266047752163e-01  1.6649114202457924e-01  8.8515618011459161e-03  3.4058360824059103e-01  3.5113462732390571e-01  2.2367940455785032e-01  2.1626354994109404e-01  2.7847627719783469e-02  2.2270398835906584e-02  2.9462967695096465e-01  1.7000973230109967e-01  1.5324061131346467e-01  9.2111030375569003e-02  8.6297673040727135e-02  2.8920073210236902e-01  2.9315483694181443e-01  3.1442499074905794e-01  1.7539095524750109e-01  1.6009387162148633e-01  1.3490344568418300e-01  1.3607507027736723e-01  1.5304645225310251e-01  1.5968262289286256e-01  7.7507583531736729e-02  9.4321360642008148e-02  7.2358240236228027e-02  7.7472922573606898e-02  3.3461006866628068e-01  3.3295740781057587e-01  3.3009830948931934e-01  3.2971125443566562e-01  3.0907631577556249e-01  3.1893343401420748e-01  3.0951703038975026e-01  3.8303137719686305e-02  1.9708592685617246e-01  1.9952431408149099e-01  1.8860260499029755e-01  1.8031811522005023e-01  1.4872605356074403e-01  1.4481742717830864e-01  1.6915501167370595e-01  1.4664427142334766e-01  1.6222461131900764e-01  3.2915153254443619e-01  3.3285011834370787e-01  2.3217649143907557e-01  2.5367360950483259e-01  2.3018942857209712e-01  2.1992007103964434e-01  2.1177451367745181e-01  4.3073844799656438e-02  3.1002076694899114e-02  4.9694307018072363e-02  1.5140754147156626e-01  1.4176013469369636e-01  1.2721997848923688e-01  1.4095571681580030e-01  1.8457546974202818e-01  1.9379965755398412e-01  1.8263354559398545e-01  1.6362286221472000e-01  4.0391236036189541e-02  3.5456743689229728e-02  1.1383900946555052e-01  1.3366362066813364e-01  3.5361603472052255e-01  2.1020693535794233e-01  2.1961588665804418e-01  2.3111803618184479e-01  8.0614295833495511e-02  2.6168451951239724e-01  2.3893833448699101e-01  3.3909375508250733e-01  2.8583765616973134e-01  2.9997452200977531e-01  3.1258203857685707e-01  1.1756596414141882e-01  1.1920961525292133e-01  1.4859706936460690e-01  1.5125183953077090e-01  1.4797470241445415e-01  2.8787559426726711e-01  2.7800273561870403e-01  2.7145189237420486e-01  8.1407188126733296e-03  1.0763068112674091e-02  1.0573589594128250e-02  3.1061720633204673e-03  1.9891043705191766e-01  1.9779604107110949e-01  1.8571960139733196e-01  3.3584272148391092e-01  3.0648131152688957e-01  2.6195868651707650e-02  3.0874453971723136e-02  2.6392599283684218e-02  1.5468726169648098e-01  1.6458048736980610e-01  2.2396480036528155e-01  2.1361199948498982e-01  2.0332200645732662e-01  6.4891453050415535e-02  5.7710689638887473e-02  -4.4758686300290546e-06  7.5219676221188981e-03  -1.5571941933424532e-05  3.3182409840228166e-01  6.2753970851212884e-02  7.0130977265093819e-02  7.7544177425110911e-02  3.1126235749782860e-01  3.0398336870602155e-01  2.8141479845625400e-01  3.0388819916401405e-01  7.3232477483956809e-02  1.5114749629094448e-01  2.8898927329086155e-01  2.9163507226953200e-01  2.5768955869447097e-01  2.7906987257105398e-01  2.7104698280449169e-01  2.6743260695978460e-01  -1.7398967929357310e-05  3.5913059011271447e-06  9.6427478513177352e-03  7.4805623247182360e-02  1.7868022027413409e-02  2.9527883311472264e-01  3.0977644476318988e-01  2.9295337611523370e-01  6.7697631005907186e-02  1.4047946205397460e-01  1.6451066615636314e-01  1.6403120241487637e-01  1.5658169404134326e-01  1.4997645875763280e-01  1.4849473077158246e-01  3.5628141159569415e-01  3.5472071301290398e-01  1.5908525385796338e-01  2.8667709180523737e-01  2.8261770637072769e-01  1.3935918784919546e-01  1.2661174397799096e-01  1.3857249878119834e-01  1.4537634809457237e-01  1.1939155254192083e-01  1.2632538351678596e-01  1.7923650308245465e-01  3.6018777874988850e-01  3.5542737416434650e-01  2.9180114728130827e-02  1.9229150492542806e-02  2.4141507029724084e-02  1.1709056630089716e-01  2.1684096552278270e-01  2.3637571538174987e-01  2.2637646877933362e-01  4.9214123282061026e-02  6.9431032405391127e-02  4.2027008811591875e-02  5.5762115982712530e-02  4.6896830497442449e-02  1.8293467909377076e-01  3.5004277779675745e-05  4.2938054830100438e-03  5.0839448325424856e-02  1.3849447355491340e-01  1.3312217440909765e-01  3.1307458374392333e-01  3.2468282909982787e-01  3.0792510803310652e-01  3.1961935017721121e-01  3.2606373481470968e-01  3.1144007689310244e-01  1.4789962055643213e-01  3.2481390909673741e-01  3.0153859662130572e-01  2.9860362990057221e-01  3.2217831987076229e-01  1.1540549291266011e-01  1.2350910671634786e-01  1.2265425406855228e-01  3.0198914932329146e-01  3.0314690005197609e-01  2.8091791937007843e-01  1.4247864465770188e-01  1.5892899429104979e-01  1.4140241173777696e-01  3.0646968750717113e-01  2.8132538402247309e-01  3.1134637291840134e-01  1.1635533107201117e-01  1.3675182084147738e-01  1.2824155766014711e-01  1.5978766321904037e-01  1.4204124433864429e-01  1.6873360225641595e-01  2.3555472916022246e-01  3.3490852861311610e-01  2.8587103800979869e-03  4.2481567013424194e-07  1.2343186681920190e-02  3.8483121108562417e-03  1.1242153452532910e-01  2.9981583405516715e-01  2.8307558421489010e-01  3.0476364699077702e-01  2.9151851662742251e-01  2.8347687531833055e-01  3.1495228090041444e-01  1.8556154668800170e-02  1.5300935761363205e-01  2.4138814501133643e-01  9.9020848691247706e-02  1.4596075393314267e-01  1.9394274818988526e-02  3.1275190261992089e-02  3.2916735928291657e-01  3.2499433084414858e-01  3.2542850213540481e-01  3.1900948022375580e-01  3.0053346735789260e-01  1.4005859520126035e-02  8.9936734352281302e-03  1.6178218359390253e-01  1.2255092989841208e-02  4.1494750918137188e-02  2.9656662614143497e-02  9.6487466943490516e-02  2.0378650384753907e-01  1.2538943445225176e-01  2.7232990926873946e-01  2.5223104610202346e-01  2.0860590214064646e-02  1.5499462842098699e-01  1.5771407913199195e-01  1.6809964124154717e-01  3.2626761447167224e-01  2.9670360300233706e-01  1.3316848078460314e-01  1.4197626166323576e-01  3.2538282893337644e-01  1.2103195392740310e-01  1.3642150355977714e-01  2.1700310142417553e-01  2.3364152529645249e-01  1.2664233151776103e-01  -6.9855345963588548e-06  5.6565296861692121e-02  1.4758559263777424e-01  1.4633588007408055e-01  3.0214827669466304e-01  1.5350107836563537e-01  2.9338291367384711e-01  1.4773413818615808e-01  5.9932472966784972e-02  3.4215571000864492e-01  1.2120578336501768e-01  2.0624273349339914e-01  2.9002746611006081e-01  1.4900914402549753e-01  9.3838310569074629e-02  7.7219897950910374e-02  7.8855260963822241e-02  2.1366110463062932e-01  2.1573374587789407e-01  3.0988058875368191e-01  2.8767476204364351e-01  3.1353822332760167e-01  2.4665235483982534e-01  3.1599584331024760e-01  3.3523254479771281e-01  1.5805021173773753e-01  1.4675989369814055e-01  1.4064030737381350e-01  1.7486569580238212e-01  1.2732490523458645e-07  5.9510961755827855e-05  5.9813268315269648e-03  3.1655158779444459e-01  3.1864014211991781e-01  2.9661860060546413e-01  2.5715100372011368e-01  2.6792578785270199e-01  2.7597382159357903e-01  3.3852631625825602e-01  3.3547576299869863e-01  3.4667554151965346e-01  2.7582289666774606e-01  1.3695450459214878e-01  1.5163890929640428e-01  1.4905864908261005e-01  1.9592955431457276e-01  1.0692718096246820e-02  4.9301497679286868e-03  1.9816385982500923e-01  3.1893866437813312e-01  3.4760986860683005e-02  2.8460697098573678e-01  3.0485937200449531e-01  2.8649184248578974e-01  3.0530705770050764e-02  3.0795577077329983e-01  2.9425674546676413e-03  1.4022309631883058e-02  1.8564599228286956e-02  2.0145573518687423e-02  1.4590049824981431e-02  2.9234155380729931e-01  4.6506052799190983e-02  5.2200252067116593e-02  5.9587474418229654e-02  1.5394232783260825e-01  1.5114991736962866e-01  3.1727678496099548e-01  9.1511545727469470e-03  1.5425060156233969e-01  3.4246266230262329e-01  3.3728243921274420e-01  1.4617122114693967e-01  1.1659809889889647e-01  3.4158467624430561e-01  1.8312670420373178e-01  3.4299666772914467e-01  1.4885182657542446e-02  1.8058259398397938e-01  1.8991806834173122e-01  2.0679745765281565e-01  2.8255878117395306e-01  3.0605526024702773e-01  3.0500969129076699e-01  2.5399865553853546e-01  2.5380733573984487e-01  1.3053793675957692e-02  5.5571476299259431e-02  1.3543477581375984e-01  1.8406465399414509e-01  2.3526149300578847e-01  2.0784562160741364e-02  1.4879833803801851e-01  1.3308810609223584e-01  3.4687587585528989e-01  1.3041331462589495e-01  2.1538956040166857e-01  1.0060768680920439e-01  8.4600847768094303e-02  2.8795458780374394e-01  9.6550139202187524e-02  1.5662935796267771e-01  1.9902835479829567e-01  1.1747004017846800e-01  8.2079453455857057e-02  3.5184536571833563e-01  1.6979010679622925e-01  2.6327657640830743e-02  2.6334168639175837e-01  1.5875872117847364e-01  9.4217321348882777e-02  1.5613982079052849e-01  1.4841513386164443e-01  1.3525115781540989e-01  3.0871746220432039e-01  1.2780635582487551e-01  6.9436292108776887e-02  2.7231493970002835e-01  6.6794433389367218e-03  2.1722927908837078e-01  1.8890503431931217e-05  3.3866596625832895e-01  1.7130929202219300e-02  1.3221974492618849e-01  7.0280695332639684e-02  6.7822133678871147e-02  2.9054922882021461e-01  2.9390398120482936e-01  8.7069944104454868e-05  3.2682485345671769e-01  3.3188724064594322e-01  6.2832111329699653e-02  5.8696024143312056e-02  6.9708333495420244e-02  -3.4387363319495167e-06  3.3839156333753936e-02  2.0585172612815472e-01  2.1902954117115830e-02  1.9341280188447219e-01  3.3817417062583099e-01  3.4046820917760728e-01  3.1948777652214516e-01  3.3836062530825606e-01  3.3464723333207147e-01  3.3393693604726354e-01  3.3015025942930099e-01  2.9176486807818858e-01  1.5016357173936484e-01  3.0443284044748803e-01  3.1713570075405778e-01  3.3880576450372069e-01  1.9450360812778208e-01  2.5594103824310049e-01  2.0617308567092197e-02  5.8311331557709976e-02  6.0824568083051901e-02  3.2627378309724314e-02  1.6151331612429407e-01  3.3071740990105131e-01  2.9910899353152043e-01  5.0345726039996659e-02  -3.0117929601525456e-05  5.4378212082910091e-02  1.4909692307930650e-01  2.1259746156292056e-01  3.2176834237566643e-01  2.8500693570773339e-01  1.4609366090754383e-01  1.9887379609663577e-01  2.6921984688452405e-01  2.7773257966480158e-01  8.3158804876262649e-02  4.2216350668032053e-02  4.5653913105540823e-02  2.9515056879876811e-01  1.0436238814808652e-01  3.2567850887496097e-01  3.1647519648924383e-01  2.9460824222188969e-01  3.1730146114045660e-01  9.6893664093815224e-02  1.5021149145421092e-01  3.1347746680853178e-01  3.3160136096302889e-01  2.9451836556483429e-01  3.3957942038155942e-01  3.2731887932156534e-01  </DataArray> 
</PointData> 
</Piece>
</UnstructuredGrid>
</VTKFile>