<?xml version="1.0"?>
<VTKFile type="UnstructuredGrid"  version="0.1"  >
<UnstructuredGrid>
<Piece  NumberOfPoints="39074" NumberOfCells="74980">
<Points>
<DataArray  type="Float64"  NumberOfComponents="3"  format="ascii">33 100 0  33 99 0  33.5 100 0  33.5 99 0  34 100 0  34 99 0  34.5 100 0  34.5 99 0  35 100 0  35 99 0  35.5 100 0  35.5 99 0  36 100 0  36 99 0  36.5 100 0  36.5 99 0  37 100 0  37 99 0  37.5 100 0  37.5 99 0  38 100 0  38 99 0  38.5 100 0  38.5 99 0  39 100 0  39 99 0  39.49999999999999 100 0  39.49999999999999 99 0  40 100 0  40 99 0  40.5 100 0  40.5 99 0  41 100 0  41 99 0  41.5 100 0  41.5 99 0  42.00000000000001 100 0  42.00000000000001 99 0  42.5 100 0  42.5 99 0  43 100 0  43 99 0  43.5 100 0  43.5 99 0  44 100 0  44 99 0  44.5 100 0  44.5 99 0  45 100 0  45 99 0  45.5 100 0  45.5 99 0  46 100 0  46 99 0  46.5 100 0  46.5 99 0  47 100 0  47 99 0  47.5 100 0  47.5 99 0  48 100 0  48 99 0  48.49999999999999 100 0  48.49999999999999 99 0  49 100 0  49 99 0  49.5 100 0  49.5 99 0  50 100 0  50 99 0  50.5 100 0  50.5 99 0  51.00000000000001 100 0  51.00000000000001 99 0  51.5 100 0  51.5 99 0  52 100 0  52 99 0  52.5 100 0  52.5 99 0  53 100 0  53 99 0  53.5 100 0  53.5 99 0  54 100 0  54 99 0  54.5 100 0  54.5 99 0  54.99999999999999 100 0  54.99999999999999 99 0  55.5 100 0  55.5 99 0  56 100 0  56 99 0  56.5 100 0  56.5 99 0  57 100 0  57 99 0  57.50000000000001 100 0  57.50000000000001 99 0  58 100 0  58 99 0  58.5 100 0  58.5 99 0  59 100 0  59 99 0  59.5 100 0  59.5 99 0  60 100 0  60 99 0  60.5 100 0  60.5 99 0  61 100 0  61 99 0  61.49999999999999 100 0  61.49999999999999 99 0  62 100 0  62 99 0  62.5 100 0  62.5 99 0  63 100 0  63 99 0  63.5 100 0  63.5 99 0  64 100 0  64 99 0  64.5 100 0  64.5 99 0  65 100 0  65 99 0  65.5 100 0  65.5 99 0  66 100 0  66 99 0  66.5 100 0  66.5 99 0  67 100 0  67 99 0  67.5 100 0  67.5 99 0  68 100 0  68 99 0  68.5 100 0  68.5 99 0  69 100 0  69 99 0  69.5 100 0  69.5 99 0  70 100 0  70 99 0  70.5 100 0  70.5 99 0  71 100 0  71 99 0  71.5 100 0  71.5 99 0  72 100 0  72 99 0  72.5 100 0  72.5 99 0  73 100 0  73 99 0  73.5 100 0  73.5 99 0  74 100 0  74 99 0  74.5 100 0  74.5 99 0  75 100 0  75 99 0  75.5 100 0  75.5 99 0  76 100 0  76 99 0  76.5 100 0  76.5 99 0  77 100 0  77 99 0  77.50000000000001 100 0  77.50000000000001 99 0  78 100 0  78 99 0  78.5 100 0  78.5 99 0  78.99999999999999 100 0  78.99999999999999 99 0  79.5 100 0  79.5 99 0  80 100 0  80 99 0  80.5 100 0  80.5 99 0  81 100 0  81 99 0  81.5 100 0  81.5 99 0  82 100 0  82 99 0  82.5 100 0  82.5 99 0  83 100 0  83 99 0  83.5 100 0  83.5 99 0  84.00000000000001 100 0  84.00000000000001 99 0  84.5 100 0  84.5 99 0  85 100 0  85 99 0  85.49999999999999 100 0  85.49999999999999 99 0  86 100 0  86 99 0  86.5 100 0  86.5 99 0  87 100 0  87 99 0  87.5 100 0  87.5 99 0  88 100 0  88 99 0  88.5 100 0  88.5 99 0  89 100 0  89 99 0  89.5 100 0  89.5 99 0  90 100 0  90 99 0  90.50000000000001 100 0  90.50000000000001 99 0  91 100 0  91 99 0  91.5 100 0  91.5 99 0  92 100 0  92 99 0  92.5 100 0  92.5 99 0  93 100 0  93 99 0  93.5 100 0  93.5 99 0  94 100 0  94 99 0  94.5 100 0  94.5 99 0  95 100 0  95 99 0  95.5 100 0  95.5 99 0  96 100 0  96 99 0  96.5 100 0  96.5 99 0  96.99999999999999 100 0  96.99999999999999 99 0  97.5 100 0  97.5 99 0  98 100 0  98 99 0  98.5 100 0  98.5 99 0  99 100 0  99 99 0  99.5 100 0  99.5 99 0  100 100 0  100 99 0  100.5 100 0  100.5 99 0  101 100 0  101 99 0  101.5 100 0  101.5 99 0  102 100 0  102 99 0  102.5 100 0  102.5 99 0  103 100 0  103 99 0  103.5 100 0  103.5 99 0  104 100 0  104 99 0  104.5 100 0  104.5 99 0  105 100 0  105 99 0  105.5 100 0  105.5 99 0  106 100 0  106 99 0  106.5 100 0  106.5 99 0  107 100 0  107 99 0  107.5 100 0  107.5 99 0  108 100 0  108 99 0  108.5 100 0  108.5 99 0  109 100 0  109 99 0  109.5 100 0  109.5 99 0  110 100 0  110 99 0  110.5 100 0  110.5 99 0  111 100 0  111 99 0  111.5 100 0  111.5 99 0  112 100 0  112 99 0  112.5 100 0  112.5 99 0  113 100 0  113 99 0  113.5 100 0  113.5 99 0  114 100 0  114 99 0  114.5 100 0  114.5 99 0  115 100 0  115 99 0  115.5 100 0  115.5 99 0  116 100 0  116 99 0  116.5 100 0  116.5 99 0  117 100 0  117 99 0  117.5 100 0  117.5 99 0  118 100 0  118 99 0  118.5 100 0  118.5 99 0  119 100 0  119 99 0  119.5 100 0  119.5 99 0  120 100 0  120 99 0  120.5 100 0  120.5 99 0  121 100 0  121 99 0  121.5 100 0  121.5 99 0  122 100 0  122 99 0  122.5 100 0  122.5 99 0  123 100 0  123 99 0  123.5 100 0  123.5 99 0  124 100 0  124 99 0  124.5 100 0  124.5 99 0  125 100 0  125 99 0  125.5 100 0  125.5 99 0  126 100 0  126 99 0  126.5 100 0  126.5 99 0  127 100 0  127 99 0  127.5 100 0  127.5 99 0  128 100 0  128 99 0  128.5 100 0  128.5 99 0  129 100 0  129 99 0  129.5 100 0  129.5 99 0  130 100 0  130 99 0  130.5 100 0  130.5 99 0  131 100 0  131 99 0  131.5 100 0  131.5 99 0  132 100 0  132 99 0  132.5 100 0  132.5 99 0  133 100 0  133 99 0  133.5 100 0  133.5 99 0  134 100 0  134 99 0  134.5 100 0  134.5 99 0  135 100 0  135 99 0  135.5 100 0  135.5 99 0  136 100 0  136 99 0  136.5 100 0  136.5 99 0  137 100 0  137 99 0  137.5 100 0  137.5 99 0  138 100 0  138 99 0  138.5 100 0  138.5 99 0  139 100 0  139 99 0  139.5 100 0  139.5 99 0  140 100 0  140 99 0  140.5 100 0  140.5 99 0  141 100 0  141 99 0  141.5 100 0  141.5 99 0  142 100 0  142 99 0  142.5 100 0  142.5 99 0  143 100 0  143 99 0  143.5 100 0  143.5 99 0  144 100 0  144 99 0  144.5 100 0  144.5 99 0  145 100 0  145 99 0  145.5 100 0  145.5 99 0  146 100 0  146 99 0  146.5 100 0  146.5 99 0  147 100 0  147 99 0  147.5 100 0  147.5 99 0  148 100 0  148 99 0  148.5 100 0  148.5 99 0  149 100 0  149 99 0  149.5 100 0  149.5 99 0  150 100 0  150 99 0  150.5 100 0  150.5 99 0  151 100 0  151 99 0  151.5 100 0  151.5 99 0  152 100 0  152 99 0  152.5 100 0  152.5 99 0  153 100 0  153 99 0  153.5 100 0  153.5 99 0  154 100 0  154 99 0  154.5 100 0  154.5 99 0  155 100 0  155 99 0  155.5 100 0  155.5 99 0  156 100 0  156 99 0  156.5 100 0  156.5 99 0  157 100 0  157 99 0  157.5 100 0  157.5 99 0  158 100 0  158 99 0  158.5 100 0  158.5 99 0  159 100 0  159 99 0  159.5 100 0  159.5 99 0  160 100 0  160 99 0  160.5 100 0  160.5 99 0  161 100 0  161 99 0  161.5 100 0  161.5 99 0  162 100 0  162 99 0  162.5 100 0  162.5 99 0  163 100 0  163 99 0  163.5 100 0  163.5 99 0  164 100 0  164 99 0  164.5 100 0  164.5 99 0  165 100 0  165 99 0  165.5 100 0  165.5 99 0  166 100 0  166 99 0  166.5 100 0  166.5 99 0  167 100 0  167 99 0  167.5 100 0  167.5 99 0  168 100 0  168 99 0  168.5 100 0  168.5 99 0  169 100 0  169 99 0  169.5 100 0  169.5 99 0  170 100 0  170 99 0  170.5 100 0  170.5 99 0  171 100 0  171 99 0  171.5 100 0  171.5 99 0  172 100 0  172 99 0  172.5 100 0  172.5 99 0  173 100 0  173 99 0  173.5 100 0  173.5 99 0  174 100 0  174 99 0  174.5 100 0  174.5 99 0  175 100 0  175 99 0  175.5 100 0  175.5 99 0  176 100 0  176 99 0  176.5 100 0  176.5 99 0  177 100 0  177 99 0  177.5 100 0  177.5 99 0  178 100 0  178 99 0  178.5 100 0  178.5 99 0  179 100 0  179 99 0  179.5 100 0  179.5 99 0  180 100 0  180 99 0  180.5 100 0  180.5 99 0  181 100 0  181 99 0  181.5 100 0  181.5 99 0  182 100 0  182 99 0  182.5 100 0  182.5 99 0  183 100 0  183 99 0  183.5 100 0  183.5 99 0  184 100 0  184 99 0  184.5 100 0  184.5 99 0  185 100 0  185 99 0  185.5 100 0  185.5 99 0  186 100 0  186 99 0  186.5 100 0  186.5 99 0  187 100 0  187 99 0  187.5 100 0  187.5 99 0  188 100 0  188 99 0  188.5 100 0  188.5 99 0  189 100 0  189 99 0  189.5 100 0  189.5 99 0  190 100 0  190 99 0  190.5 100 0  190.5 99 0  191 100 0  191 99 0  191.5 100 0  191.5 99 0  192 100 0  192 99 0  192.5 100 0  192.5 99 0  193 100 0  193 99 0  193.5 100 0  193.5 99 0  194 100 0  194 99 0  194.5 100 0  194.5 99 0  195 100 0  195 99 0  195.5 100 0  195.5 99 0  196 100 0  196 99 0  196.5 100 0  196.5 99 0  197 100 0  197 99 0  197.5 100 0  197.5 99 0  198 100 0  198 99 0  198.5 100 0  198.5 99 0  199 100 0  199 99 0  199.5 100 0  199.5 99 0  200 100 0  200 99 0  200.5 100 0  200.5 99 0  201 100 0  201 99 0  201.5 100 0  201.5 99 0  202 100 0  202 99 0  202.5 100 0  202.5 99 0  203 100 0  203 99 0  203.5 100 0  203.5 99 0  204 100 0  204 99 0  204.5 100 0  204.5 99 0  205 100 0  205 99 0  205.5 100 0  205.5 99 0  206 100 0  206 99 0  206.5 100 0  206.5 99 0  207 100 0  207 99 0  207.5 100 0  207.5 99 0  208 100 0  208 99 0  208.5 100 0  208.5 99 0  209 100 0  209 99 0  209.5 100 0  209.5 99 0  210 100 0  210 99 0  210.5 100 0  210.5 99 0  211 100 0  211 99 0  211.5 100 0  211.5 99 0  212 100 0  212 99 0  212.5 100 0  212.5 99 0  213 100 0  213 99 0  213.5 100 0  213.5 99 0  214 100 0  214 99 0  214.5 100 0  214.5 99 0  215 100 0  215 99 0  215.5 100 0  215.5 99 0  216 100 0  216 99 0  216.5 100 0  216.5 99 0  217 100 0  217 99 0  217.5 100 0  217.5 99 0  218 100 0  218 99 0  218.5 100 0  218.5 99 0  219 100 0  219 99 0  219.5 100 0  219.5 99 0  220 100 0  220 99 0  220.5 100 0  220.5 99 0  221 100 0  221 99 0  221.5 100 0  221.5 99 0  222 100 0  222 99 0  222.5 100 0  222.5 99 0  223 100 0  223 99 0  223.5 100 0  223.5 99 0  224 100 0  224 99 0  224.5 100 0  224.5 99 0  225 100 0  225 99 0  225.5 100 0  225.5 99 0  226 100 0  226 99 0  226.5 100 0  226.5 99 0  227 100 0  227 99 0  227.5 100 0  227.5 99 0  228 100 0  228 99 0  228.5 100 0  228.5 99 0  229 100 0  229 99 0  229.5 100 0  229.5 99 0  230 100 0  230 99 0  230.5 100 0  230.5 99 0  231 100 0  231 99 0  231.5 100 0  231.5 99 0  232 100 0  232 99 0  232.5 100 0  232.5 99 0  233 100 0  233 99 0  233.5 100 0  233.5 99 0  234 100 0  234 99 0  234.5 100 0  234.5 99 0  235 100 0  235 99 0  235.5 100 0  235.5 99 0  236 100 0  236 99 0  236.5 100 0  236.5 99 0  237 100 0  237 99 0  237.5 100 0  237.5 99 0  238 100 0  238 99 0  238.5 100 0  238.5 99 0  239 100 0  239 99 0  239.5 100 0  239.5 99 0  240 100 0  240 99 0  240.5 100 0  240.5 99 0  241 100 0  241 99 0  241.5 100 0  241.5 99 0  242 100 0  242 99 0  242.5 100 0  242.5 99 0  243 100 0  243 99 0  243
[...]
<PointData  Scalars="f_34"> 
<DataArray  type="Float64"  Name="f_34"  format="ascii">1.1045196006010187e+00  1.0959023929435094e+00  1.1114446535348184e+00  1.1028439721785410e+00  1.1184064836135272e+00  1.1098429976226434e+00  1.1254243013794802e+00  1.1168988954113066e+00  1.1324982663482490e+00  1.1240112826124038e+00  1.1396253444260012e+00  1.1311787259474959e+00  1.1468006651105673e+00  1.1383977284701199e+00  1.1540186534312986e+00  1.1456638340560421e+00  1.1612735442103410e+00  1.1529720171609170e+00  1.1685596203356792e+00  1.1603169944999432e+00  1.1758713310409443e+00  1.1676934142493038e+00  1.1832033448817469e+00  1.1750959704809056e+00  1.1905505698842906e+00  1.1825194713074565e+00  1.1979081574581560e+00  1.1899588782666437e+00  1.2052714990088613e+00  1.1974093285397491e+00  1.2126362200516565e+00  1.2048661472713387e+00  1.2199981743183099e+00  1.2123248545320269e+00  1.2273534390641867e+00  1.2197811697082146e+00  1.2346983120662463e+00  1.2272310149752890e+00  1.2420293104087556e+00  1.2346705187922604e+00  1.2493431709440812e+00  1.2420960199011237e+00  1.2566368522113225e+00  1.2495040720297490e+00  1.2639075375504660e+00  1.2568914493219083e+00  1.2711526391370533e+00  1.2642551524131793e+00  1.2783698026672372e+00  1.2715924150110565e+00  1.2855569124362751e+00  1.2789007108052839e+00  1.2927120965700241e+00  1.2861777605193949e+00  1.2998337321860700e+00  1.2934215389097561e+00  1.3069204502770164e+00  1.3006302815194597e+00  1.3139711401227978e+00  1.3078024909985375e+00  1.3209849530510118e+00  1.3149369428070536e+00  1.3279613053747039e+00  1.3220326901231134e+00  1.3348998803457919e+00  1.3290890677827298e+00  1.3418006289701190e+00  1.3361056950831904e+00  1.3486637695373622e+00  1.3430824772860528e+00  1.3554897857267436e+00  1.3500196056607854e+00  1.3622794231581381e+00  1.3569175559160380e+00  1.3690336842688451e+00  1.3637770848734172e+00  1.3757538214096250e+00  1.3705992252492443e+00  1.3824413280703933e+00  1.3773852784241636e+00  1.3890979281667237e+00  1.3841368050991683e+00  1.3957255633436225e+00  1.3908556137605224e+00  1.4023263782827660e+00  1.3975437469054319e+00  1.4089027040339694e+00  1.4042034650153759e+00  1.4154570394300718e+00  1.4108372283044586e+00  1.4219920306866911e+00  1.4174476763158177e+00  1.4285104493329426e+00  1.4240376054883701e+00  1.4350151686653003e+00  1.4306099448688825e+00  1.4415091389627759e+00  1.4371677301977397e+00  1.4479953617457717e+00  1.4437140766501604e+00  1.4544768634017116e+00  1.4502521505650259e+00  1.4609566685357906e+00  1.4567851405394849e+00  1.4674377734333941e+00  1.4633162283064109e+00  1.4739231200397600e+00  1.4698485598417157e+00  1.4804155708712143e+00  1.4763852171672862e+00  1.4869178852691252e+00  1.4829291913212699e+00  1.4934326973918408e+00  1.4894833569590393e+00  1.4999624963109388e+00  1.4960504490245012e+00  1.5065096085358058e+00  1.5026330418922058e+00  1.5130761832362438e+00  1.5092335313261354e+00  1.5196641803670004e+00  1.5158541195323711e+00  1.5262753618236142e+00  1.5224968035016404e+00  1.5329112856778968e+00  1.5291633667468445e+00  1.5395733034575612e+00  1.5358553744440737e+00  1.5462625603522817e+00  1.5425741718885209e+00  1.5529799981523018e+00  1.5493208860848005e+00  1.5597263606600025e+00  1.5560964302101370e+00  1.5665022012631771e+00  1.5629015106233251e+00  1.5733078923232640e+00  1.5697366360452214e+00  1.5801436360132219e+00  1.5766021285091485e+00  1.5870094762375435e+00  1.5834981356713669e+00  1.5939053112791552e+00  1.5904246440808909e+00  1.6008309068421334e+00  1.5973814930313064e+00  1.6077859091922457e+00  1.6043683886517006e+00  1.6147698581363175e+00  1.6113849179355437e+00  1.6217821996232940e+00  1.6184305624523068e+00  1.6288222977923945e+00  1.6255047115337298e+00  1.6358894463347409e+00  1.6326066747726562e+00  1.6429828790730050e+00  1.6397356937154119e+00  1.6501017796976956e+00  1.6468909526678588e+00  1.6572452906285751e+00  1.6540715885693047e+00  1.6644125209944944e+00  1.6612766999176793e+00  1.6716025537455854e+00  1.6685053547531701e+00  1.6788144519274613e+00  1.6757565977266540e+00  1.6860472641593494e+00  1.6830294562937484e+00  1.6933000293663425e+00  1.6903229460858025e+00  1.7005717808215415e+00  1.6976360755162152e+00  1.7078615495566947e+00  1.7049678496845040e+00  1.7151683672006732e+00  1.7123172736421972e+00  1.7224912683044604e+00  1.7196833550844013e+00  1.7298292922089877e+00  1.7270651065289320e+00  1.7371814845092395e+00  1.7344615470420806e+00  1.7445468981642762e+00  1.7418717035662021e+00  1.7519245942986315e+00  1.7492946118999984e+00  1.7593136427361713e+00  1.7567293173777085e+00  1.7667131223030101e+00  1.7641748752885136e+00  1.7741221209315508e+00  1.7716303510726963e+00  1.7815397355934799e+00  1.7790948203261838e+00  1.7889650720852308e+00  1.7865673686406192e+00  1.7963972446856080e+00  1.7940470913016129e+00  1.8038353757015950e+00  1.8015330928637707e+00  1.8112785949149399e+00  1.8090244866171914e+00  1.8187260389392124e+00  1.8165203939568237e+00  1.8261768504942406e+00  1.8240199436626878e+00  1.8336301776026724e+00  1.8315222710964925e+00  1.8410851727113282e+00  1.8390265173176585e+00  1.8485409917387878e+00  1.8465318281199232e+00  1.8559967930493260e+00  1.8540373529882932e+00  1.8634517363530696e+00  1.8615422439752043e+00  1.8709049815319678e+00  1.8690456544941991e+00  1.8783556873917804e+00  1.8765467380298719e+00  1.8858030103412431e+00  1.8840446467634622e+00  1.8932461030012913e+00  1.8915385301149210e+00  1.9006841127491556e+00  1.8990275332044657e+00  1.9081161802050592e+00  1.9065107952392615e+00  1.9155414376721831e+00  1.9139874478342456e+00  1.9229590075442842e+00  1.9214566132800084e+00  1.9303680006990585e+00  1.9289174027749145e+00  1.9377675148994837e+00  1.9363689146433376e+00  1.9451566332293073e+00  1.9438102325666025e+00  1.9525344225926735e+00  1.9512404238579579e+00  1.9598999323113848e+00  1.9586585378172643e+00  1.9672521928560529e+00  1.9660636042049231e+00  1.9745902147494732e+00  1.9734546318776138e+00  1.9819129876816033e+00  1.9808306076303492e+00  1.9892194798753191e+00  1.9881904952900074e+00  1.9965086377407830e+00  1.9955332351047916e+00  2.0037793858533939e+00  2.0028577434716022e+00  2.0110306272860559e+00  2.0101629130392515e+00  2.0182612443209993e+00  2.0174476132197796e+00  2.0254700995594037e+00  2.0247106911327077e+00  2.0326560374392075e+00  2.0319509729983287e+00  2.0398178861625986e+00  2.0391672659862263e+00  2.0469544600252645e+00  2.0463583605142581e+00  2.0540645621298448e+00  2.0535230329820613e+00  2.0611469874565524e+00  2.0606600489116889e+00  2.0682005262550920e+00  2.0677681664572254e+00  2.0752239677141886e+00  2.0748461402353571e+00  2.0822161038588236e+00  2.0818927254209192e+00  2.0891757336210177e+00  2.0889066820451849e+00  2.0961016670281212e+00  2.0958867794316847e+00  2.1029927294533359e+00  2.1028318007040396e+00  2.1098477658770323e+00  2.1097405473039310e+00  2.1166656451140269e+00  2.1166118434642689e+00  2.1234452639716186e+00  2.1234445405936313e+00  2.1301855513149839e+00  2.1302375215414968e+00  2.1368854720299422e+00  2.1369897047300821e+00  2.1435440308872744e+00  2.1437000481552211e+00  2.1501602763263801e+00  2.1503675532755522e+00  2.1567333041882306e+00  2.1569912688241053e+00  2.1632622614374530e+00  2.1635702945887476e+00  2.1697463499200218e+00  2.1701037852165741e+00  2.1761848302064117e+00  2.1765909541020663e+00  2.1825770255694934e+00  2.1830310774190833e+00  2.1889223261425452e+00  2.1894234983530523e+00  2.1952201932953539e+00  2.1957676315818460e+00  2.2014701642559831e+00  2.2020629680428421e+00  2.2076718569933358e+00  2.2083090800094261e+00  2.2138249753607115e+00  2.2145056264841236e+00  2.2199293144850007e+00  2.2206523588975577e+00  2.2259847663695291e+00  2.2267491270837438e+00  2.2319913256620629e+00  2.2327958854832315e+00  2.2379490955234047e+00  2.2387926995068828e+00  2.2438582935170852e+00  2.2447397519757213e+00  2.2497192574273139e+00  2.2506373495360918e+00  2.2555324509011747e+00  2.2564859289358585e+00  2.2612984688024422e+00  2.2622860630363593e+00  2.2670180421587793e+00  2.2680384664271953e+00  2.2726920425820767e+00  2.2737440005072016e+00  2.2783214860430996e+00  2.2794036778950044e+00  2.2839075358872454e+00  2.2850186660376002e+00  2.2894515049878312e+00  2.2905902898945780e+00  2.2949548569470375e+00  2.2961200335898635e+00  2.3004192062724544e+00  2.3016095409417132e+00  2.3058463174788444e+00  2.3070606148050539e+00  2.3112381030899001e+00  2.3124752151877459e+00  2.3165966205430029e+00  2.3178554561335889e+00  2.3219240680306217e+00  2.3232036013990340e+00  2.3272227793445284e+00  2.3285220589869318e+00  2.3324952178222835e+00  2.3338133746382863e+00  2.3377439695290465e+00  2.3390802244208579e+00  2.3429717358401665e+00  2.3443254065902939e+00  2.3481813256209496e+00  2.3495518329346137e+00  2.3533756472281278e+00  2.3547625198446016e+00  2.3585577005822285e+00  2.3599605793805893e+00  2.3637305695808624e+00  2.3651492106293013e+00  2.3688974151394109e+00  2.3703316916621393e+00  2.3740614691579025e+00  2.3755113724191004e+00  2.3792260297214547e+00  2.3806916688504436e+00  2.3843944578474821e+00  2.3858760586528192e+00  2.3895701760976040e+00  2.3910680789391074e+00  2.3947566693770637e+00  2.3962713261841353e+00  2.3999574882522090e+00  2.4014894587938551e+00  2.4051762551288074e+00  2.4067262026560958e+00  2.4104166736536907e+00  2.4119853600494809e+00  2.4156825417312531e+00  2.4172708223160715e+00  2.4209777685882070e+00  2.4225865867459713e+00  2.4263063963769413e+00  2.4279367781815888e+00  2.4316726268839886e+00  2.4333256759292925e+00  2.4370808540092916e+00  2.4387577466715809e+00  2.4425357028097512e+00  2.4442376842089053e+00  2.4480420760636932e+00  2.4497704570350289e+00  2.4536052095207093e+00  2.4553613649725716e+00  2.4592307372657460e+00  2.4610161063796574e+00  2.4649247689640190e+00  2.4667408578022836e+00  2.4706939811863995e+00  2.4725423684138370e+00  2.4765457255742027e+00  2.4784280721863494e+00  2.4824881573295454e+00  2.4844062215223044e+00  2.4885303884713701e+00  2.4904860471025674e+00  2.4946826715592687e+00  2.4966779500604250e+00  2.5009566212725796e+00  2.5029937343911706e+00  2.5073654835045165e+00  2.5094468899144893e+00  2.5139244647247061e+00  2.5160529393510545e+00  2.5206511386185841e+00  2.5228298674736607e+00  2.5275659529249621e+00  2.5297986562948904e+00  2.5346928676989648e+00  2.5369839584866751e+00  2.5420601680252228e+00  2.5444149525795750e+00  2.5497015111642023e+00  2.5521264392136271e+00  2.5576572928034720e+00  2.5601602595765853e+00  2.5659764535452130e+00  2.5685671476707572e+00  2.5747189014881262e+00  2.5774091707320079e+00  2.5839588105120392e+00  2.5867629719866447e+00  2.5937891851153205e+00  2.5967241140509549e+00  2.6043282945679649e+00  2.6074129396489032e+00  2.6157289347729353e+00  2.6189825329305654e+00  2.6281921037852318e+00  2.6316295983263953e+00  2.6419878589540353e+00  2.6456093960619440e+00  2.6574885441385732e+00  2.6612562892872917e+00  2.6752250714665218e+00  2.6790118528280074e+00  2.6959910399195124e+00  2.6994621322540429e+00  2.7210608986017819e+00  2.7233806682730171e+00  2.7527271370509792e+00  2.7517451439100871e+00  2.7958895535337205e+00  2.7855470403883160e+00  2.8636536045977263e+00  2.8244488815714095e+00  2.9999790426975914e+00  2.8594207795401676e+00  2.8629032633016154e+00  2.8336572513445080e+00  2.7947245285355256e+00  2.7905551854685311e+00  2.7512791298205119e+00  2.7529318922093524e+00  2.7194121438516148e+00  2.7223199648671557e+00  2.6941974931324979e+00  2.6972301486111698e+00  2.6733246898348768e+00  2.6762169486338330e+00  2.6555069657747925e+00  2.6582206760063052e+00  2.6399421634507516e+00  2.6424963216282942e+00  2.6260935518904795e+00  2.6285169390502037e+00  2.6135848774622819e+00  2.6159032907368300e+00  2.6021434741431508e+00  2.6043771727358327e+00  2.5915666080217030e+00  2.5937306914690730e+00  2.5817003269445635e+00  2.5838057857100765e+00  2.5724255886503644e+00  2.5744803396214979e+00  2.5636488691071038e+00  2.5656585999884221e+00  2.5552956431763181e+00  2.5572644532756477e+00  2.5473057640311301e+00  2.5492366346676283e+00  2.5396301283613956e+00  2.5415252625538347e+00  2.5322282297858973e+00  2.5340892954869094e+00  2.5250663364766774e+00  2.5268946399328849e+00  2.5181161142988482e+00  2.5199127231806955e+00  2.5113535725053557e+00  2.5131194029822734e+00  2.5047582461383802e+00  2.5064941240134764e+00  2.4983125543980909e+00  2.5000192574892672e+00  2.4920012914666736e+00  2.4936795783443833e+00  2.4858112182458485e+00  2.4874618469756258e+00  2.4797307318818205e+00  2.4813544713929074e+00  2.4737495959346059e+00  2.4753472319143430e+00  2.4678587183478307e+00  2.4694310550524761e+00  2.4620499674964598e+00  2.4635978265082010e+00  2.4563160188792281e+00  2.4578402355815649e+00  2.4506502267180821e+00  2.4521516450765550e+00  2.4450465159949237e+00  2.4465259820959542e+00  2.4394992914130640e+00  2.4409576461156948e+00  2.4340033604993492e+00  2.4354414314828352e+00  2.4285538686228900e+00  2.4299724620599430e+00  2.4231462441391689e+00  2.4245461361854685e+00  2.4177761522058230e+00  2.4191580804673780e+00  2.4124394560808415e+00  2.4138041111992297e+00  2.4071321849218585e+00  2.4084802024014640e+00  2.4018505072694767e+00  2.4031824596588964e+00  2.3965907095269992e+00  2.3979070990576496e+00  2.3913491788510766e+00  2.3926504306285992e+00  2.3861223899478361e+00  2.3874088457855280e+00  2.3809068953313739e+00  2.3821788083085997e+00  2.3756993186496760e+00  2.3769568484716284e+00  2.3704963507195740e+00  2.3717395599472781e+00  2.3652947479399660e+00  2.3665235991507823e+00  2.3600913327728281e+00  2.3613056867013835e+00  2.3548829959966944e+00  2.3560826106943993e+00  2.3496667004483860e+00  2.3508512314860255e+00  2.3444394859776216e+00  2.3456084877003502e+00  2.3391984753466279e+00  2.3403514031740813e+00  2.3339408808142936e+00  2.3350770945607779e+00  2.3286640111526764e+00  2.3297827793241010e+00  2.3233652788535890e+00  2.3244657838591958e+00  2.3180422072951803e+00  2.3191235514940827e+00  2.3126924376534870e+00  2.3137536501391351e+00  2.3073137353622877e+00  2.3083537793725424e+00  2.3019039959457710e+00  2.3029217767737262e+00  2.2964612500735830e+00  2.2974556233444043e+00  2.2909836677151416e+00  2.2919534478880834e+00  2.2854695613003093e+00  2.2864135302530135e+00  2.2799173878251282e+00  2.2808343033795118e+00  2.2743257498738867e+00  2.2752143541295857e+00  2.2686933955609989e+00  2.2695524229131792e+00  2.2630192174267725e+00  2.2638474021597599e+00  2.2573022503491873e+00  2.2580983337151306e+00  2.2515416685578198e+00  2.2523044052694399e+00  2.2457367818554204e+00  2.2464649459431301e+00  2.2398870311667545e+00  2.2405794211715451e+00  2.2339919835426638e+00  2.2346474270367112e+00  2.2280513267503661e+00  2.2286686841961352e+00  2.2220648635788018e+00  2.2226430315538828e+00  2.2160325059810555e+00  2.2165704198098881e+00  2.2099542691654488e+00  2.2104509050097354e+00  2.2038302657332451e+00  2.2042846422006122e+00  2.1976606999454775e+00  2.1980718792803451e+00  2.1914458621841386e+00  2.1918129511064826e+00  2.1851861236558636e+00  2.1855082739123928e+00  2.1788819313686378e+00  2.1791583400574037e+00  2.1725338033956869e+00  2.1727637131196040e+00  2.1661423244253757e+00  2.1663250233229334e+00  2.1597081415824939e+00  2.1598429632753664e+00  2.1532319604947308e+00  2.1533182839827125e+00  2.1467145415691009e+00  2.1467517910928855e+00  2.1401566964363350e+00  2.1401443413187629e+00  2.1335592845172151e+00  2.1334968389840738e+00  2.1269232096633588e+00  2.1268102326359433e+00  2.1202494168261348e+00  2.1200855116699269e+00  2.1135388887108659e+00  2.1133237029183385e+00  2.1067926423793684e+00  2.1065258671600802e+00  2.1000117257717097e+00  2.0996930955199322e+00  2.0931972141275099e+00  2.0928265057367099e+00  2.0863502062979169e+00  2.0859272382926388e+00  2.0794718209510270e+00  2.0789964524098496e+00  2.0725631926853989e+00  2.0720353219340133e+00  2.0656254680781490e+00  2.0650450311385415e+00  2.0586598017050779e+00  2.0580267704953643e+00  2.0516673521799724e+00  2.0509817324691646e+00  2.0446492782680341e+00  2.0439111074003873e+00  2.0376067351339038e+00  2.0368160795479922e+00  2.0305408707872306e+00  2.0296978233650749e+00  2.0234528227884523e+00  2.0225575000790390e+00  2.0163437152733796e+00  2.0153962546423774e+00  2.0092146563482185e+00  2.0082152131106961e+00  2.0020667358961366e+00  2.0010154804913700e+00  1.9949010238239129e+00  1.9937981390904642e+00  1.9877185687627026e+00  1.9865642473680718e+00  1.9805203972223013e+00  1.9793148392948534e+00  1.9733075131840567e+00  1.9720509241863269e+00  1.9660808981051912e+00  1.9647734869777380e+00  1.9588415112970516e+00  1.9574834888917174e+00  1.9515902906325755e+00  1.9501818684438748e+00  1.9443281535337051e+00  1.9428695427278393e+00  1.9370559981877642e+00  1.9355474089207880e+00  1.9297747049425047e+00  1.9282163459527242e+00  1.9224851378321040e+00  1.9208772162869983e+00  1.9151881461904980e+00  1.9135308677651239e+00  1.9078845663134352e+00  1.9061781354755263e+00  1.9005752231361783e+00  1.8988198436125154e+00  1.8932609318994924e+00  1.8914568072986020e+00  1.8859424997820327e+00  1.8840898343494434e+00  1.8786207274824094e+00  1.8767197269664961e+00  1.8712964107387575e+00  1.8693472833473137e+00  1.8639703417776154e+00  1.8619732992075744e+00  1.8566433106871072e+00  1.8545985692122469e+00  1.8493161067120800e+00  1.8472238883156011e+00  1.8419895194705831e+00  1.8398500530116952e+00  1.8346643400924252e+00  1.8324778624977041e+00  1.8273413622810699e+00  1.8251081197528736e+00  1.8200213833001986e+00  1.8177416325355471e+00  1.8127052048858285e+00  1.8103792142998458e+00  1.8053936340838728e+00  1.8030216850322778e+00  1.7980874840117036e+00  1.7956698720067068e+00  1.7907875745404254e+00  1.7883246104539614e+00  1.7834947328924944e+00  1.7809867441397245e+00  1.7762097941467094e+00  1.7736571258414833e+00  1.7689336016398183e+00  1.7663366177119459e+00  1.7616670072508509e+00  1.7590260915129050e+00  1.7544108715508300e+00  1.7517264286995753e+00  1.7471660637969508e+00  1.7444385203314210e+00  1.7399334617462889e+00  1.7371632667812729e+00  1.7327139512603642e+00  1.7299015772101063e+00  1.7255084256675852e+00  1.7226543687705191e+00  1.7183177848467430e+00  1.7154225654975945e+00  1.7111429339907405e+00  1.7082070968418008e+00  1.7039847820062810e+00  1.7010088957947878e+00  1.6968442395020094e+00  1.6938288965559718e+00  1.6897222163154053e+00  1.6866680316853877e+00  1.6826196185270645e+00  1.6795272286872944e+00  1.6755373449110320e+00  1.6724074059692204e+00  1.6684762827709461e+00  1.6653094681232505e+00  1.6614373031151539e+00  1.6582343004805333e+00  1.6544212551290451e+00  1.6511827628966993e+00  1.6474289599109495e+00  1.6441556827353005e+00  1.6404612034482395e+00  1.6371538470290425e+00  1.6335187288240220e+00  1.6301779938144136e+00  1.6266022276612171e+00  1.6232288026546740e+00  1.6197123308306209e+00  1.6163068843888702e+00  1.6128495984720608e+00  1.6094127701703986e+00  1.6060145094030407e+00  1.6025468998874577e+00  1.5992074500166753e+00  1.5957096100885406e+00  1.5924287027995656e+00  1.5889011215685749e+00  1.5856784346298840e+00  1.5821215268039692e+00  1.5789566850450369e+00  1.5753707774567842e+00  1.5722633546960014e+00  1.5686486721980797e+00  1.5655981942303139e+00  1.5619548451265062e+00  1.5589607938664627e+00  1.5552887550793604e+00  1.5523505739379240e+00  1.5486496761476851e+00  1.5457667766937964e+00  1.5420366897134090e+00  1.5392084596440478e+00  1.5354486783238044e+00  1.5326744907295984e+00  1.5288843217054420e+00  1.5261635455804303e+00  1.5223420951960920e+00  1.5196741070978634e+00  1.5158202708379132e+00  1.5132044675604761e+00  1.5093169213293203e+00  1.5067527334068114e+00  1.5028299269764762e+00  1.5003168327932643e+00  1.4963569857197125e+00  1.4938945259631344e+00  1.4898956262368643e+00  1.4874834183951269e+00  1.4834432240469573e