<?xml version="1.0"?>
<VTKFile type="UnstructuredGrid"  version="0.1"  >
<UnstructuredGrid>
<Piece  NumberOfPoints="39074" NumberOfCells="74980">
<Points>
<DataArray  type="Float64"  NumberOfComponents="3"  format="ascii">33 100 0  33 99 0  33.5 100 0  33.5 99 0  34 100 0  34 99 0  34.5 100 0  34.5 99 0  35 100 0  35 99 0  35.5 100 0  35.5 99 0  36 100 0  36 99 0  36.5 100 0  36.5 99 0  37 100 0  37 99 0  37.5 100 0  37.5 99 0  38 100 0  38 99 0  38.5 100 0  38.5 99 0  39 100 0  39 99 0  39.49999999999999 100 0  39.49999999999999 99 0  40 100 0  40 99 0  40.5 100 0  40.5 99 0  41 100 0  41 99 0  41.5 100 0  41.5 99 0  42.00000000000001 100 0  42.00000000000001 99 0  42.5 100 0  42.5 99 0  43 100 0  43 99 0  43.5 100 0  43.5 99 0  44 100 0  44 99 0  44.5 100 0  44.5 99 0  45 100 0  45 99 0  45.5 100 0  45.5 99 0  46 100 0  46 99 0  46.5 100 0  46.5 99 0  47 100 0  47 99 0  47.5 100 0  47.5 99 0  48 100 0  48 99 0  48.49999999999999 100 0  48.49999999999999 99 0  49 100 0  49 99 0  49.5 100 0  49.5 99 0  50 100 0  50 99 0  50.5 100 0  50.5 99 0  51.00000000000001 100 0  51.00000000000001 99 0  51.5 100 0  51.5 99 0  52 100 0  52 99 0  52.5 100 0  52.5 99 0  53 100 0  53 99 0  53.5 100 0  53.5 99 0  54 100 0  54 99 0  54.5 100 0  54.5 99 0  54.99999999999999 100 0  54.99999999999999 99 0  55.5 100 0  55.5 99 0  56 100 0  56 99 0  56.5 100 0  56.5 99 0  57 100 0  57 99 0  57.50000000000001 100 0  57.50000000000001 99 0  58 100 0  58 99 0  58.5 100 0  58.5 99 0  59 100 0  59 99 0  59.5 100 0  59.5 99 0  60 100 0  60 99 0  60.5 100 0  60.5 99 0  61 100 0  61 99 0  61.49999999999999 100 0  61.49999999999999 99 0  62 100 0  62 99 0  62.5 100 0  62.5 99 0  63 100 0  63 99 0  63.5 100 0  63.5 99 0  64 100 0  64 99 0  64.5 100 0  64.5 99 0  65 100 0  65 99 0  65.5 100 0  65.5 99 0  66 100 0  66 99 0  66.5 100 0  66.5 99 0  67 100 0  67 99 0  67.5 100 0  67.5 99 0  68 100 0  68 99 0  68.5 100 0  68.5 99 0  69 100 0  69 99 0  69.5 100 0  69.5 99 0  70 100 0  70 99 0  70.5 100 0  70.5 99 0  71 100 0  71 99 0  71.5 100 0  71.5 99 0  72 100 0  72 99 0  72.5 100 0  72.5 99 0  73 100 0  73 99 0  73.5 100 0  73.5 99 0  74 100 0  74 99 0  74.5 100 0  74.5 99 0  75 100 0  75 99 0  75.5 100 0  75.5 99 0  76 100 0  76 99 0  76.5 100 0  76.5 99 0  77 100 0  77 99 0  77.50000000000001 100 0  77.50000000000001 99 0  78 100 0  78 99 0  78.5 100 0  78.5 99 0  78.99999999999999 100 0  78.99999999999999 99 0  79.5 100 0  79.5 99 0  80 100 0  80 99 0  80.5 100 0  80.5 99 0  81 100 0  81 99 0  81.5 100 0  81.5 99 0  82 100 0  82 99 0  82.5 100 0  82.5 99 0  83 100 0  83 99 0  83.5 100 0  83.5 99 0  84.00000000000001 100 0  84.00000000000001 99 0  84.5 100 0  84.5 99 0  85 100 0  85 99 0  85.49999999999999 100 0  85.49999999999999 99 0  86 100 0  86 99 0  86.5 100 0  86.5 99 0  87 100 0  87 99 0  87.5 100 0  87.5 99 0  88 100 0  88 99 0  88.5 100 0  88.5 99 0  89 100 0  89 99 0  89.5 100 0  89.5 99 0  90 100 0  90 99 0  90.50000000000001 100 0  90.50000000000001 99 0  91 100 0  91 99 0  91.5 100 0  91.5 99 0  92 100 0  92 99 0  92.5 100 0  92.5 99 0  93 100 0  93 99 0  93.5 100 0  93.5 99 0  94 100 0  94 99 0  94.5 100 0  94.5 99 0  95 100 0  95 99 0  95.5 100 0  95.5 99 0  96 100 0  96 99 0  96.5 100 0  96.5 99 0  96.99999999999999 100 0  96.99999999999999 99 0  97.5 100 0  97.5 99 0  98 100 0  98 99 0  98.5 100 0  98.5 99 0  99 100 0  99 99 0  99.5 100 0  99.5 99 0  100 100 0  100 99 0  100.5 100 0  100.5 99 0  101 100 0  101 99 0  101.5 100 0  101.5 99 0  102 100 0  102 99 0  102.5 100 0  102.5 99 0  103 100 0  103 99 0  103.5 100 0  103.5 99 0  104 100 0  104 99 0  104.5 100 0  104.5 99 0  105 100 0  105 99 0  105.5 100 0  105.5 99 0  106 100 0  106 99 0  106.5 100 0  106.5 99 0  107 100 0  107 99 0  107.5 100 0  107.5 99 0  108 100 0  108 99 0  108.5 100 0  108.5 99 0  109 100 0  109 99 0  109.5 100 0  109.5 99 0  110 100 0  110 99 0  110.5 100 0  110.5 99 0  111 100 0  111 99 0  111.5 100 0  111.5 99 0  112 100 0  112 99 0  112.5 100 0  112.5 99 0  113 100 0  113 99 0  113.5 100 0  113.5 99 0  114 100 0  114 99 0  114.5 100 0  114.5 99 0  115 100 0  115 99 0  115.5 100 0  115.5 99 0  116 100 0  116 99 0  116.5 100 0  116.5 99 0  117 100 0  117 99 0  117.5 100 0  117.5 99 0  118 100 0  118 99 0  118.5 100 0  118.5 99 0  119 100 0  119 99 0  119.5 100 0  119.5 99 0  120 100 0  120 99 0  120.5 100 0  120.5 99 0  121 100 0  121 99 0  121.5 100 0  121.5 99 0  122 100 0  122 99 0  122.5 100 0  122.5 99 0  123 100 0  123 99 0  123.5 100 0  123.5 99 0  124 100 0  124 99 0  124.5 100 0  124.5 99 0  125 100 0  125 99 0  125.5 100 0  125.5 99 0  126 100 0  126 99 0  126.5 100 0  126.5 99 0  127 100 0  127 99 0  127.5 100 0  127.5 99 0  128 100 0  128 99 0  128.5 100 0  128.5 99 0  129 100 0  129 99 0  129.5 100 0  129.5 99 0  130 100 0  130 99 0  130.5 100 0  130.5 99 0  131 100 0  131 99 0  131.5 100 0  131.5 99 0  132 100 0  132 99 0  132.5 100 0  132.5 99 0  133 100 0  133 99 0  133.5 100 0  133.5 99 0  134 100 0  134 99 0  134.5 100 0  134.5 99 0  135 100 0  135 99 0  135.5 100 0  135.5 99 0  136 100 0  136 99 0  136.5 100 0  136.5 99 0  137 100 0  137 99 0  137.5 100 0  137.5 99 0  138 100 0  138 99 0  138.5 100 0  138.5 99 0  139 100 0  139 99 0  139.5 100 0  139.5 99 0  140 100 0  140 99 0  140.5 100 0  140.5 99 0  141 100 0  141 99 0  141.5 100 0  141.5 99 0  142 100 0  142 99 0  142.5 100 0  142.5 99 0  143 100 0  143 99 0  143.5 100 0  143.5 99 0  144 100 0  144 99 0  144.5 100 0  144.5 99 0  145 100 0  145 99 0  145.5 100 0  145.5 99 0  146 100 0  146 99 0  146.5 100 0  146.5 99 0  147 100 0  147 99 0  147.5 100 0  147.5 99 0  148 100 0  148 99 0  148.5 100 0  148.5 99 0  149 100 0  149 99 0  149.5 100 0  149.5 99 0  150 100 0  150 99 0  150.5 100 0  150.5 99 0  151 100 0  151 99 0  151.5 100 0  151.5 99 0  152 100 0  152 99 0  152.5 100 0  152.5 99 0  153 100 0  153 99 0  153.5 100 0  153.5 99 0  154 100 0  154 99 0  154.5 100 0  154.5 99 0  155 100 0  155 99 0  155.5 100 0  155.5 99 0  156 100 0  156 99 0  156.5 100 0  156.5 99 0  157 100 0  157 99 0  157.5 100 0  157.5 99 0  158 100 0  158 99 0  158.5 100 0  158.5 99 0  159 100 0  159 99 0  159.5 100 0  159.5 99 0  160 100 0  160 99 0  160.5 100 0  160.5 99 0  161 100 0  161 99 0  161.5 100 0  161.5 99 0  162 100 0  162 99 0  162.5 100 0  162.5 99 0  163 100 0  163 99 0  163.5 100 0  163.5 99 0  164 100 0  164 99 0  164.5 100 0  164.5 99 0  165 100 0  165 99 0  165.5 100 0  165.5 99 0  166 100 0  166 99 0  166.5 100 0  166.5 99 0  167 100 0  167 99 0  167.5 100 0  167.5 99 0  168 100 0  168 99 0  168.5 100 0  168.5 99 0  169 100 0  169 99 0  169.5 100 0  169.5 99 0  170 100 0  170 99 0  170.5 100 0  170.5 99 0  171 100 0  171 99 0  171.5 100 0  171.5 99 0  172 100 0  172 99 0  172.5 100 0  172.5 99 0  173 100 0  173 99 0  173.5 100 0  173.5 99 0  174 100 0  174 99 0  174.5 100 0  174.5 99 0  175 100 0  175 99 0  175.5 100 0  175.5 99 0  176 100 0  176 99 0  176.5 100 0  176.5 99 0  177 100 0  177 99 0  177.5 100 0  177.5 99 0  178 100 0  178 99 0  178.5 100 0  178.5 99 0  179 100 0  179 99 0  179.5 100 0  179.5 99 0  180 100 0  180 99 0  180.5 100 0  180.5 99 0  181 100 0  181 99 0  181.5 100 0  181.5 99 0  182 100 0  182 99 0  182.5 100 0  182.5 99 0  183 100 0  183 99 0  183.5 100 0  183.5 99 0  184 100 0  184 99 0  184.5 100 0  184.5 99 0  185 100 0  185 99 0  185.5 100 0  185.5 99 0  186 100 0  186 99 0  186.5 100 0  186.5 99 0  187 100 0  187 99 0  187.5 100 0  187.5 99 0  188 100 0  188 99 0  188.5 100 0  188.5 99 0  189 100 0  189 99 0  189.5 100 0  189.5 99 0  190 100 0  190 99 0  190.5 100 0  190.5 99 0  191 100 0  191 99 0  191.5 100 0  191.5 99 0  192 100 0  192 99 0  192.5 100 0  192.5 99 0  193 100 0  193 99 0  193.5 100 0  193.5 99 0  194 100 0  194 99 0  194.5 100 0  194.5 99 0  195 100 0  195 99 0  195.5 100 0  195.5 99 0  196 100 0  196 99 0  196.5 100 0  196.5 99 0  197 100 0  197 99 0  197.5 100 0  197.5 99 0  198 100 0  198 99 0  198.5 100 0  198.5 99 0  199 100 0  199 99 0  199.5 100 0  199.5 99 0  200 100 0  200 99 0  200.5 100 0  200.5 99 0  201 100 0  201 99 0  201.5 100 0  201.5 99 0  202 100 0  202 99 0  202.5 100 0  202.5 99 0  203 100 0  203 99 0  203.5 100 0  203.5 99 0  204 100 0  204 99 0  204.5 100 0  204.5 99 0  205 100 0  205 99 0  205.5 100 0  205.5 99 0  206 100 0  206 99 0  206.5 100 0  206.5 99 0  207 100 0  207 99 0  207.5 100 0  207.5 99 0  208 100 0  208 99 0  208.5 100 0  208.5 99 0  209 100 0  209 99 0  209.5 100 0  209.5 99 0  210 100 0  210 99 0  210.5 100 0  210.5 99 0  211 100 0  211 99 0  211.5 100 0  211.5 99 0  212 100 0  212 99 0  212.5 100 0  212.5 99 0  213 100 0  213 99 0  213.5 100 0  213.5 99 0  214 100 0  214 99 0  214.5 100 0  214.5 99 0  215 100 0  215 99 0  215.5 100 0  215.5 99 0  216 100 0  216 99 0  216.5 100 0  216.5 99 0  217 100 0  217 99 0  217.5 100 0  217.5 99 0  218 100 0  218 99 0  218.5 100 0  218.5 99 0  219 100 0  219 99 0  219.5 100 0  219.5 99 0  220 100 0  220 99 0  220.5 100 0  220.5 99 0  221 100 0  221 99 0  221.5 100 0  221.5 99 0  222 100 0  222 99 0  222.5 100 0  222.5 99 0  223 100 0  223 99 0  223.5 100 0  223.5 99 0  224 100 0  224 99 0  224.5 100 0  224.5 99 0  225 100 0  225 99 0  225.5 100 0  225.5 99 0  226 100 0  226 99 0  226.5 100 0  226.5 99 0  227 100 0  227 99 0  227.5 100 0  227.5 99 0  228 100 0  228 99 0  228.5 100 0  228.5 99 0  229 100 0  229 99 0  229.5 100 0  229.5 99 0  230 100 0  230 99 0  230.5 100 0  230.5 99 0  231 100 0  231 99 0  231.5 100 0  231.5 99 0  232 100 0  232 99 0  232.5 100 0  232.5 99 0  233 100 0  233 99 0  233.5 100 0  233.5 99 0  234 100 0  234 99 0  234.5 100 0  234.5 99 0  235 100 0  235 99 0  235.5 100 0  235.5 99 0  236 100 0  236 99 0  236.5 100 0  236.5 99 0  237 100 0  237 99 0  237.5 100 0  237.5 99 0  238 100 0  238 99 0  238.5 100 0  238.5 99 0  239 100 0  239 99 0  239.5 100 0  239.5 99 0  240 100 0  240 99 0  240.5 100 0  240.5 99 0  241 100 0  241 99 0  241.5 100 0  241.5 99 0  242 100 0  242 99 0  242.5 100 0  242.5 99 0  243 100 0  243 99 0  243
[...]
<PointData  Scalars="f_51"> 
<DataArray  type="Float64"  Name="f_51"  format="ascii">2.1241351229414427e-06  2.0111620725212471e-04  -5.3312308417566260e-05  3.2416345283100396e-04  4.5137642272080709e-06  4.8157545192737804e-04  1.2973499442150014e-04  7.0152114049621631e-04  3.0071065561378964e-04  9.3037228471993020e-04  5.0365096825901357e-04  1.1657653954173625e-03  7.3609944898238506e-04  1.4077578655062300e-03  9.9433340654679842e-04  1.6563112588675953e-03  1.2745022082513305e-03  1.9119569745062103e-03  1.5728731312293839e-03  2.1748607935153067e-03  1.8859931389691965e-03  2.4448184012093154e-03  2.2107638656426276e-03  2.7212890644519416e-03  2.5444398219536643e-03  3.0034749682916052e-03  2.8845937683080664e-03  3.2904012348002037e-03  3.2290700803106814e-03  3.5809818750050042e-03  3.5759378696155900e-03  3.8740698765005934e-03  3.9234493300683753e-03  4.1684931975942514e-03  4.2700052300282095e-03  4.4630797330403749e-03  4.6141276825529707e-03  4.7566742318877588e-03  4.9544395057658118e-03  5.0481496345673579e-03  5.2896491943255960e-03  5.3364147085528165e-03  5.6185404947763987e-03  5.6204193376283955e-03  5.9399656671099118e-03  5.8991584012812364e-03  6.2528416461857250e-03  6.1716748666630029e-03  6.5561484520473990e-03  6.4370624898838474e-03  6.8489293211580118e-03  6.6944683663074179e-03  7.1302921352978318e-03  6.9430954633940192e-03  7.3994118106648962e-03  7.1822051998474768e-03  7.6555333779073330e-03  7.4111200900288943e-03  7.8979755368226590e-03  7.6292264446771443e-03  8.1261345092658206e-03  7.8359771017776931e-03  8.3394880426755739e-03  8.0308941506440426e-03  8.5375994362214772e-03  8.2135716051976362e-03  8.7201214734461442e-03  8.3836779769192720e-03  8.8868001509646525e-03  8.5409586928727726e-03  9.0374780936945537e-03  8.6852382989718625e-03  9.1720975445511652e-03  8.8164223829985382e-03  9.2907028121272332e-03  8.9344991459792671e-03  9.3934420548678673e-03  9.0395405446623764e-03  9.4805682765624639e-03  9.1317029227168285e-03  9.5524394063994100e-03  9.2112270444119487e-03  9.6095173395142307e-03  9.2784374427223853e-03  9.6523658213144570e-03  9.3337409948332090e-03  9.6816470723215045e-03  9.3776246422791042e-03  9.6981170702161411e-03  9.4106521813100055e-03  9.7026194323744843e-03  9.4334600615356111e-03  9.6960778751225621e-03  9.4467521482349080e-03  9.6794872648610711e-03  9.4512934253784334e-03  9.6539033197995654e-03  9.4479026426900758e-03  9.6204310678472283e-03  9.4374439404099845e-03  9.5802122142863641e-03  9.4208175196159837e-03  9.5344116206205459e-03  9.3989494630837955e-03  9.4842031405266685e-03  9.3727808503933033e-03  9.4307550985726768e-03  9.3432563504253635e-03  9.3752157290250306e-03  9.3113125124344356e-03  9.3186989145053328e-03  9.2778660114376278e-03  9.2622705746088097e-03  9.2438021319188411e-03  9.2069360516150531e-03  9.2099637927715791e-03  9.1536288228480280e-03  9.1771414231929319e-03  9.1032008365090622e-03  9.1460639909557977e-03  9.0564147198372476e-03  9.1173914587305491e-03  9.0139380456371512e-03  9.0917088983512809e-03  8.9763397679133317e-03  9.0695224281736042e-03  8.9440888529810861e-03  9.0512570581476569e-03  8.9175550455788382e-03  9.0372564384515446e-03  8.8970116262758296e-03  9.0277844189035374e-03  8.8826399442708277e-03  9.0230282469448940e-03  8.8745354533790663e-03  9.0231031687291480e-03  8.8727149422729527e-03  9.0280581552760475e-03  8.8771246335556976e-03  9.0378824550350866e-03  8.8876488288879129e-03  9.0525126744482806e-03  8.9041187965270621e-03  9.0718401058388024e-03  8.9263216291711293e-03  9.0957180529683216e-03  8.9540088398441259e-03  9.1239689439896170e-03  8.9869045080531399e-03  9.1563910649260678e-03  9.0247128334963941e-03  9.1927647904059672e-03  9.0671249980690521e-03  9.2328582292388762e-03  9.1138252762958966e-03  9.2764322387292892e-03  9.1644963686421284e-03  9.3232447920925908e-03  9.2188239607411317e-03  9.3730547078060694e-03  9.2765005342521304e-03  9.4256247682941371e-03  9.3372284721581350e-03  9.4807242684884167e-03  9.4007225132360078e-03  9.5381310433203404e-03  9.4667116181274095e-03  9.5976330279457615e-03  9.5349403132020064e-03  9.6590294060786459e-03  9.6051695793810850e-03  9.7221314012400448e-03  9.6771773515990506e-03  9.7867627634907889e-03  9.7507586914707661e-03  9.8527600007056338e-03  9.8257256915384415e-03  9.9199723995013478e-03  9.9019071641536834e-03  9.9882618764405191e-03  9.9791481628535364e-03  1.0057502695585982e-02  1.0057309378300995e-02  1.0127581084041279e-02  1.0136266445374239e-02  1.0198394772802556e-02  1.0215909192640794e-02  1.0269852486201341e-02  1.0296140860431000e-02  1.0341873399507819e-02  1.0376877309056211e-02  1.0414386580797961e-02  1.0458046234396815e-02  1.0487330430151183e-02  1.0539586404190142e-02  1.0560652126308351e-02  1.0621446924896862e-02  1.0634307088525235e-02  1.0703586545725452e-02  1.0708258458942618e-02  1.0785973003651918e-02  1.0782476608847708e-02  1.0868582410610587e-02  1.0856938670249398e-02  1.0951398681770037e-02  1.0931628092553627e-02  1.1034413001673384e-02  1.1006534222541125e-02  1.1117623323178966e-02  1.1081651904526016e-02  1.1201033892366402e-02  1.1156981096213625e-02  1.1284654791128629e-02  1.1232526494634578e-02  1.1368501487817484e-02  1.1308297165593822e-02  1.1452594385251863e-02  1.1384306169069236e-02  1.1536958354605931e-02  1.1460570172402425e-02  1.1621622243130342e-02  1.1537109042583819e-02  1.1706618343634300e-02  1.1613945408712365e-02  1.1791981813941860e-02  1.1691104185847826e-02  1.1877750035373977e-02  1.1768612051906747e-02  1.1963961900790529e-02  1.1846496870184325e-02  1.2050657024748807e-02  1.1924787051532654e-02  1.2137874871037660e-02  1.2003510852144522e-02  1.2225653796235117e-02  1.2082695605408110e-02  1.2314030011802379e-02  1.2162366889356666e-02  1.2403036471730413e-02  1.2242547634667103e-02  1.2492701697477326e-02  1.2323257182119960e-02  1.2583048556845363e-02  1.2404510302452664e-02  1.2674093018330577e-02  1.2486316195639283e-02  1.2765842906923706e-02  1.2568677490506353e-02  1.2858296691309201e-02  1.2651589269021506e-02  1.2951442335203149e-02  1.2735038142274419e-02  1.3045256247614956e-02  1.2819001406886767e-02  1.3139702367040231e-02  1.2903446311123865e-02  1.3234731413610191e-02  1.2988329459143529e-02  1.3330280340274872e-02  1.3073596379567613e-02  1.3426272009624768e-02  1.3159181280788083e-02  1.3522615116764617e-02  1.3245007010181430e-02  1.3619204370868266e-02  1.3330985227808779e-02  1.3715920939055565e-02  1.3417016797586841e-02  1.3812633146209171e-02  1.3502992390432131e-02  1.3909197413782243e-02  1.3588793284949413e-02  1.4005459410082648e-02  1.3674292342377744e-02  1.4101255374437290e-02  1.3759355124132252e-02  1.4196413568743625e-02  1.3843841112920035e-02  1.4290755802907040e-02  1.3927604992756373e-02  1.4384098976081606e-02  1.4010497939522599e-02  1.4476256574261345e-02  1.4092368872917082e-02  1.4567040067258273e-02  1.4173065623063412e-02  1.4656260154585439e-02  1.4252435971313537e-02  1.4743727820467307e-02  1.4330328534241129e-02  1.4829255172379548e-02  1.4406593472448524e-02  1.4912656054020680e-02  1.4481083019884223e-02  1.4993746441426236e-02  1.4553651843939809e-02  1.5072344648151494e-02  1.4624157260222263e-02  1.5148271380991278e-02  1.4692459337511793e-02  1.5221349700324457e-02  1.4758420937370488e-02  1.5291404948237313e-02  1.4821907738627814e-02  1.5358264712677745e-02  1.4882788299698638e-02  1.5421758897089997e-02  1.4940934211396435e-02  1.5481719962249217e-02  1.4996220390032330e-02  1.5537983401341948e-02  1.5048525555370553e-02  1.5590388500505935e-02  1.5097732931208972e-02  1.5638779426030668e-02  1.5143731197824849e-02  1.5683006666880567e-02  1.5186415716195096e-02  1.5722928846925398e-02  1.5225690033552272e-02  1.5758414906593094e-02  1.5261467669175653e-02  1.5789346638164999e-02  1.5293674168225243e-02  1.5815621543745901e-02  1.5322249400389619e-02  1.5837155969815615e-02  1.5347150069355579e-02  1.5853888458023754e-02  1.5368352388707858e-02  1.5865783238794128e-02  1.5385854870365845e-02  1.5872833782656397e-02  1.5399681163119856e-02  1.5875066314728802e-02  1.5409882871789848e-02  1.5872543190457073e-02  1.5416542281892010e-02  1.5865366026437247e-02  1.5419774911387685e-02  1.5853678478712368e-02  1.5419731809535035e-02  1.5837668563187253e-02  1.5416601524151823e-02  1.5817570418359735e-02  1.5410611662050608e-02  1.5793665420216187e-02  1.5402029973944163e-02  1.5766282571780352e-02  1.5391164903984610e-02  1.5735798106626425e-02  1.5378365555790760e-02  1.5702634264943852e-02  1.5364021040997621e-02  1.5667257222904185e-02  1.5348559192675431e-02  1.5630174179996487e-02  1.5332444644121739e-02  1.5591929634019432e-02  1.5316176293151676e-02  1.5553100898368692e-02  1.5300284192297522e-02  1.5514292940265515e-02  1.5285325925659083e-02  1.5476132640407135e-02  1.5271882552809785e-02  1.5439262592978259e-02  1.5260554218145785e-02  1.5404334579009233e-02  1.5251955539449091e-02  1.5372002854853840e-02  1.5246710901315037e-02  1.5342917400100128e-02  1.5245449786907374e-02  1.5317717265910948e-02  1.5248802284721174e-02  1.5297024155562697e-02  1.5257394906423010e-02  1.5281436354993731e-02  1.5271846848010924e-02  1.5271523113946099e-02  1.5292766820845363e-02  1.5267819559300575e-02  1.5320750573363927e-02  1.5270822203143646e-02  1.5356379219955932e-02  1.5280985091029917e-02  1.5400218492595067e-02  1.5298716621382359e-02  1.5452819034935880e-02  1.5324377057192442e-02  1.5514717869492899e-02  1.5358276746182432e-02  1.5586441188063800e-02  1.5400675066620319e-02  1.5668508645708578e-02  1.5451780123609813e-02  1.5761439381814249e-02  1.5511749235720346e-02  1.5865760051071535e-02  1.5580690275622784e-02  1.5982015226652765e-02  1.5658663962852565e-02  1.6110780642847655e-02  1.5745687254824482e-02  1.6252679882042508e-02  1.5841738048838590e-02  1.6408405290749859e-02  1.5946761499976054e-02  1.6578744144477398e-02  1.6060678388822663e-02  1.6764611388042285e-02  1.6183396155441315e-02  1.6967090679296894e-02  1.6314823476667597e-02  1.7187485988594240e-02  1.6454889639124493e-02  1.7427386691578031e-02  1.6603570503158239e-02  1.7688749986915817e-02  1.6760923637857011e-02  1.7974005635137492e-02  1.6927136337358567e-02  1.8286189529843327e-02  1.7102591836193511e-02  1.8629114585221419e-02  1.7287961281448817e-02  1.9007590007405699e-02  1.7484332031576906e-02  1.9427703452956756e-02  1.7693386664601130e-02  1.9897185289208492e-02  1.7917651386851630e-02  2.0425880968600742e-02  1.8160836264346607e-02  2.1026368035509939e-02  1.8428290263886628e-02  2.1714771794791126e-02  1.8727586436222233e-02  2.2511864774202285e-02  1.9069228943672915e-02  2.3444592536493086e-02  1.9467428171728161e-02  2.4548275538624757e-02  1.9940842312068524e-02  2.5869932453844072e-02  2.0513249810641419e-02  2.7473513156219320e-02  2.1214783720907009e-02  2.9448387908357916e-02  2.2087062524223783e-02  3.1923170794932711e-02  2.3203584943525059e-02  3.5088194473214415e-02  2.4744880113441139e-02  3.9230497001927100e-02  2.7206093607753220e-02  4.4784119293079842e-02  3.1896913494114061e-02  5.2461495697326464e-02  4.2498884193499550e-02  6.3262688549654611e-02  6.4450220741113978e-02  7.9167475505210541e-02  1.2605759217360424e-01  1.0596935860422910e-01  3.2106599006105607e-01  1.1282828512506468e-01  6.3273403370026826e-01  2.5195264627983732e-01  2.6756341914954679e-01  2.1089876431482230e-01  1.1271504008848167e-01  9.5171870475964690e-02  5.7805708907318926e-02  8.0321861504853029e-02  3.6715765019249676e-02  6.1754280088341849e-02  2.6508701438439877e-02  5.0062413746160474e-02  2.1697710904272981e-02  4.2057616893636518e-02  1.9316395715396430e-02  3.6323518056300630e-02  1.8096529437585065e-02  3.2146406894892746e-02  1.7443423568194161e-02  2.9027308009864940e-02  1.7073403446841016e-02  2.6653352643664238e-02  1.6848268001012735e-02  2.4813333190800022e-02  1.6697300023112954e-02  2.3361947488563996e-02  1.6583109305524125e-02  2.2197499288381779e-02  1.6485600561420666e-02  2.1247678240471555e-02  1.6394053699545930e-02  2.0460412349717825e-02  1.6302977103966821e-02  1.9797783347316092e-02  1.6209831367079153e-02  1.9231911215422132e-02  1.6113742473907004e-02  1.8742121338968586e-02  1.6014762205082828e-02  1.8312964994768401e-02  1.5913440230747491e-02  1.7932818326847053e-02  1.5810576533777532e-02  1.7592879689188084e-02  1.5707078808021094e-02  1.7286445040865434e-02  1.5603880968710349e-02  1.7008379609999156e-02  1.5501897095799029e-02  1.6754729432034213e-02  1.5401995779305754e-02  1.6522433417575810e-02  1.5304986105373583e-02  1.6309108235829733e-02  1.5211610213402366e-02  1.6112886334453836e-02  1.5122539520671307e-02  1.5932293023330706e-02  1.5038372974350959e-02  1.5766152493829594e-02  1.4959636421585718e-02  1.5613515438857842e-02  1.4886782606727921e-02  1.5473602929827841e-02  1.4820191541516757e-02  1.5345762633639577e-02  1.4760171125838070e-02  1.5229434481368122e-02  1.4706957969235724e-02  1.5124123646068164e-02  1.4660718402504267e-02  1.5029379231078902e-02  1.4621549689471512e-02  1.4944777469200683e-02  1.4589481460318196e-02  1.4869908527635020e-02  1.4564477393352610e-02  1.4804366232087170e-02  1.4546437174799018e-02  1.4747740186228844e-02  1.4535198766862325e-02  1.4699609884248213e-02  1.4530541013416731e-02  1.4659540505044616e-02  1.4532186610020188e-02  1.4627080144093533e-02  1.4539805460849401e-02  1.4601758288735481e-02  1.4553018439200007e-02  1.4583085378707438e-02  1.4571401560199034e-02  1.4570553319084835e-02  1.4594490565067255e-02  1.4563636829970868e-02  1.4621785904818652e-02  1.4561795528045410e-02  1.4652758098911534e-02  1.4564476641099800e-02  1.4686853430753381e-02  1.4571118258993303e-02  1.4723499928128355e-02  1.4581153024563349e-02  1.4762113562572839e-02  1.4594012166488021e-02  1.4802104588774501e-02  1.4609129773945399e-02  1.4842883933172457e-02  1.4625947210992564e-02  1.4883869531200128e-02  1.4643917567292645e-02  1.4924492505532169e-02  1.4662510041901947e-02  1.4964203073777443e-02  1.4681214158800802e-02  1.5002476073850132e-02  1.4699543716793946e-02  1.5038815999081233e-02  1.4717040383020543e-02  1.5072761443211232e-02  1.4733276848368079e-02  1.5103888867722898e-02  1.4747859474919821e-02  1.5131815620321254e-02  1.4760430379685103e-02  1.5156202153480175e-02  1.4770668915586094e-02  1.5176753414772133e-02  1.4778292528946059e-02  1.5193219406116114e-02  1.4783056992494836e-02  1.5205394934746212e-02  1.4784756033040573e-02  1.5213118604350821e-02  1.4783220392265284e-02  1.5216271118190738e-02  1.4778316376628017e-02  1.5214772985881114e-02  1.4769943966842820e-02  1.5208581740816235e-02  1.4758034568107778e-02  1.5197688785178980e-02  1.4742548488751877e-02  1.5182115983684056e-02  1.4723472237347117e-02  1.5161912125933551e-02  1.4700815726614296e-02  1.5137149371242584e-02  1.4674609467389930e-02  1.5107919779401116e-02  1.4644901828209857e-02  1.5074332017398800e-02  1.4611756426110319e-02  1.5036508316456849e-02  1.4575249703061991e-02  1.4994581736754733e-02  1.4535468730422395e-02  1.4948693779765069e-02  1.4492509271533997e-02  1.4898992370954399e-02  1.4446474120401594e-02  1.4845630219176145e-02  1.4397471722751671e-02  1.4788763543951391e-02  1.4345615074829463e-02  1.4728551148207612e-02  1.4291020885291494e-02  1.4665153802396831e-02  1.4233808976733705e-02  1.4598733896073541e-02  1.4174101895784042e-02  1.4529455305614603e-02  1.4112024694593755e-02  1.4457483421413963e-02  1.4047704841953149e-02  1.4382985275048782e-02  1.3981272219429334e-02  1.4306129706324073e-02  1.3912859156692934e-02  1.4227087511919300e-02  1.3842600460909186e-02  1.4146031521517248e-02  1.3770633397523276e-02  1.4063136553454921e-02  1.3697097584028574e-02  1.3978579210192958e-02  1.3622134764142400e-02  1.3892537483790893e-02  1.3545888437209386e-02  1.3805190152834797e-02  1.3468503326286945e-02  1.3716715964539754e-02  1.3390124677973464e-02  1.3627292608461511e-02  1.3310897397268527e-02  1.3537095501092822e-02  1.3230965031083539e-02  1.3446296412726598e-02  1.3150468624215043e-02  1.3355061979041532e-02  1.3069545480929885e-02  1.3263552149098549e-02  1.2988327873350939e-02  1.3171918628263959e-02  1.2906941743945478e-02  1.3080303378564695e-02  1.2825505453302959e-02  1.2988837239526450e-02  1.2744128625455991e-02  1.2897638729401405e-02  1.2662911140853144e-02  1.2806813079668328e-02  1.2581942321444184e-02  1.2716451544603966e-02  1.2501300342880155e-02  1.2626631013663726e-02  1.2421051896417774e-02  1.2537413938175734e-02  1.2341252109118699e-02  1.2448848567299364e-02  1.2261944716519506e-02  1.2360969472706953e-02  1.2183162469158139e-02  1.2273798328642543e-02  1.2104927744008079e-02  1.2187344904509618e-02  1.2027253324844204e-02  1.2101608221677919e-02  1.1950143311851699e-02  1.2016577824446010e-02  1.1873594120321910e-02  1.1932235116689812e-02  1.1797595530265548e-02  1.1848554719991362e-02  1.1722131752777247e-02  1.1765505815154606e-02  1.1647182484125005e-02  1.1683053436171773e-02  1.1572723924361648e-02  1.1601159693217119e-02  1.1498729743054381e-02  1.1519784908707182e-02  1.1425171980383852e-02  1.1438888657194302e-02  1.1352021876851019e-02  1.1358430705890567e-02  1.1279250629172613e-02  1.1278371857597079e-02  1.1206830073598417e-02  1.1198674701821383e-02  1.1134733300662175e-02  1.1119304282909996e-02  1.1062935207543118e-02  1.1040228696157383e-02  1.0991412995725217e-02  1.0961419624217619e-02  1.0920146622591791e-02  1.0882852826798798e-02  1.0849119216068211e-02  1.0804508596854183e-02  1.0778317461546541e-02  1.0726372196080242e-02  1.0707731970116862e-02  1.0648434281960953e-02  1.0637357636679874e-02  1.0570691337623664e-02  1.0567193995876944e-02  1.0493146114629351e-02  1.0497245582936944e-02  1.0415808097484278e-02  1.0427522305622704e-02  1.0338693997149491e-02  1.0358039832422027e-02  1.0261828279118736e-02  1.0288820000887065e-02  1.0185243729859879e-02  1.0219891248798909e-02  1.0108982063323455e-02  1.0151289069407106e-02  1.0033094567061366e-02  1.0083056490410122e-02  9.9576427849511224e-03  1.0015244574664453e-02  9.8826992308712718e-03  9.9479129386819375e-03  9.8083481245434881e-03  9.8811302828696428e-03  9.7346861375085386e-03  9.8149749250922031e-03  9.6618231334084422e-03  9.7495353265694331e-03  9.5898828828269965e-03  9.6849105961715771e-03  9.5190037284929481e-03  9.6212109560353497e-03  9.4493391721589964e-03  9.5585581479095821e-03  9.3810583495791602e-03  9.4970857559482005e-03  9.3143463552422968e-03  9.4369394176682577e-03  9.2494043736675840e-03  9.3782768907295280e-03  9.1864495697073275e-03  9.3212679390455161e-03  9.1257146863519840e-03  9.2660939978628613e-03  9.0674472956211536e-03  9.2129475738104809e-03  9.0119086463715473e-03  9.1620313331689067e-03  8.9593720528886485e-03  9.1135568298797362e-03  8.9101207700926100e-03  9.0677428246117488e-03  8.8644453059018979e-03  9.0248131481417190e-03  8.8226401288046992e-03  8.9849940668501067e-03  8.7849997393813842e-03  8.9485111158034685e-03  8.7518140889763611e-03  8.9155853763095184e-03  8.7233633464411080e-03  8.8864291901490124e-03  8.6999120351980083e-03  8.8612413223127275e-03  8.6817025873067357e-03  8.8402016074872504e-03  8.6689483881963719e-03  8.8234651426284880e-03  8.6618264144249571e-03  8.8111561174842590e-03  8.6604695961845467e-03  8.8033614056379182e-03  8.6649590650463328e-03  8.8001240687315511e-03  8.6753164740929270e-03  8.8014369540109234e-03  8.6914966005607486e-03  8.8072365879377727e-03  8.7133804589815192e-03  8.8173975840854998e-03  8.7407691637230289e-03  8.8317277899633215e-03  8.7733787826103048e-03  8.8499643934816814e-03  8.8108364166766210e-03  8.8717711947152757e-03  8.8526777244270147e-03  8.8967372220153298e-03  8.8983460817508384e-03  8.9243768344575460e-03  8.9471935308576469e-03  8.9541314067297286e-03  8.9984836242402010e-03  8.9853726398198136e-03  9.0513962137182321e-03  9.0174074839678518e-03  9.1050341720433237e-03  9.0494846021107189e-03  9.1584319675976772e-03  9.0808022454582759