<?xml version="1.0"?>
<VTKFile type="UnstructuredGrid"  version="0.1"  >
<UnstructuredGrid>
<Piece  NumberOfPoints="39074" NumberOfCells="74980">
<Points>
<DataArray  type="Float64"  NumberOfComponents="3"  format="ascii">66 100 0  66 99 0  67 100 0  67 99 0  68 100 0  68 99 0  69 100 0  69 99 0  70 100 0  70 99 0  71 100 0  71 99 0  72 100 0  72 99 0  73 100 0  73 99 0  74 100 0  74 99 0  75 100 0  75 99 0  76 100 0  76 99 0  77 100 0  77 99 0  78 100 0  78 99 0  78.99999999999999 100 0  78.99999999999999 99 0  80 100 0  80 99 0  81 100 0  81 99 0  82 100 0  82 99 0  83 100 0  83 99 0  84.00000000000001 100 0  84.00000000000001 99 0  85 100 0  85 99 0  86 100 0  86 99 0  87 100 0  87 99 0  88 100 0  88 99 0  89 100 0  89 99 0  90 100 0  90 99 0  91 100 0  91 99 0  92 100 0  92 99 0  93 100 0  93 99 0  94 100 0  94 99 0  95 100 0  95 99 0  96 100 0  96 99 0  96.99999999999999 100 0  96.99999999999999 99 0  98 100 0  98 99 0  99 100 0  99 99 0  100 100 0  100 99 0  101 100 0  101 99 0  102 100 0  102 99 0  103 100 0  103 99 0  104 100 0  104 99 0  105 100 0  105 99 0  106 100 0  106 99 0  107 100 0  107 99 0  108 100 0  108 99 0  109 100 0  109 99 0  110 100 0  110 99 0  111 100 0  111 99 0  112 100 0  112 99 0  113 100 0  113 99 0  114 100 0  114 99 0  115 100 0  115 99 0  116 100 0  116 99 0  117 100 0  117 99 0  118 100 0  118 99 0  119 100 0  119 99 0  120 100 0  120 99 0  121 100 0  121 99 0  122 100 0  122 99 0  123 100 0  123 99 0  124 100 0  124 99 0  125 100 0  125 99 0  126 100 0  126 99 0  127 100 0  127 99 0  128 100 0  128 99 0  129 100 0  129 99 0  130 100 0  130 99 0  131 100 0  131 99 0  132 100 0  132 99 0  133 100 0  133 99 0  134 100 0  134 99 0  135 100 0  135 99 0  136 100 0  136 99 0  137 100 0  137 99 0  138 100 0  138 99 0  139 100 0  139 99 0  140 100 0  140 99 0  141 100 0  141 99 0  142 100 0  142 99 0  143 100 0  143 99 0  144 100 0  144 99 0  145 100 0  145 99 0  146 100 0  146 99 0  147 100 0  147 99 0  148 100 0  148 99 0  149 100 0  149 99 0  150 100 0  150 99 0  151 100 0  151 99 0  152 100 0  152 99 0  153 100 0  153 99 0  154 100 0  154 99 0  155 100 0  155 99 0  156 100 0  156 99 0  157 100 0  157 99 0  158 100 0  158 99 0  159 100 0  159 99 0  160 100 0  160 99 0  161 100 0  161 99 0  162 100 0  162 99 0  163 100 0  163 99 0  164 100 0  164 99 0  165 100 0  165 99 0  166 100 0  166 99 0  167 100 0  167 99 0  168 100 0  168 99 0  169 100 0  169 99 0  170 100 0  170 99 0  171 100 0  171 99 0  172 100 0  172 99 0  173 100 0  173 99 0  174 100 0  174 99 0  175 100 0  175 99 0  176 100 0  176 99 0  177 100 0  177 99 0  178 100 0  178 99 0  179 100 0  179 99 0  180 100 0  180 99 0  181 100 0  181 99 0  182 100 0  182 99 0  183 100 0  183 99 0  184 100 0  184 99 0  185 100 0  185 99 0  186 100 0  186 99 0  187 100 0  187 99 0  188 100 0  188 99 0  189 100 0  189 99 0  190 100 0  190 99 0  191 100 0  191 99 0  192 100 0  192 99 0  193 100 0  193 99 0  194 100 0  194 99 0  195 100 0  195 99 0  196 100 0  196 99 0  197 100 0  197 99 0  198 100 0  198 99 0  199 100 0  199 99 0  200 100 0  200 99 0  201 100 0  201 99 0  202 100 0  202 99 0  203 100 0  203 99 0  204 100 0  204 99 0  205 100 0  205 99 0  206 100 0  206 99 0  207 100 0  207 99 0  208 100 0  208 99 0  209 100 0  209 99 0  210 100 0  210 99 0  211 100 0  211 99 0  212 100 0  212 99 0  213 100 0  213 99 0  214 100 0  214 99 0  215 100 0  215 99 0  216 100 0  216 99 0  217 100 0  217 99 0  218 100 0  218 99 0  219 100 0  219 99 0  220 100 0  220 99 0  221 100 0  221 99 0  222 100 0  222 99 0  223 100 0  223 99 0  224 100 0  224 99 0  225 100 0  225 99 0  226 100 0  226 99 0  227 100 0  227 99 0  228 100 0  228 99 0  229 100 0  229 99 0  230 100 0  230 99 0  231 100 0  231 99 0  232 100 0  232 99 0  233 100 0  233 99 0  234 100 0  234 99 0  235 100 0  235 99 0  236 100 0  236 99 0  237 100 0  237 99 0  238 100 0  238 99 0  239 100 0  239 99 0  240 100 0  240 99 0  241 100 0  241 99 0  242 100 0  242 99 0  243 100 0  243 99 0  244 100 0  244 99 0  245 100 0  245 99 0  246 100 0  246 99 0  247 100 0  247 99 0  248 100 0  248 99 0  249 100 0  249 99 0  250 100 0  250 99 0  251 100 0  251 99 0  252 100 0  252 99 0  253 100 0  253 99 0  254 100 0  254 99 0  255 100 0  255 99 0  256 100 0  256 99 0  257 100 0  257 99 0  258 100 0  258 99 0  259 100 0  259 99 0  260 100 0  260 99 0  261 100 0  261 99 0  262 100 0  262 99 0  263 100 0  263 99 0  264 100 0  264 99 0  265 100 0  265 99 0  266 100 0  266 99 0  267 100 0  267 99 0  268 100 0  268 99 0  269 100 0  269 99 0  270 100 0  270 99 0  271 100 0  271 99 0  272 100 0  272 99 0  273 100 0  273 99 0  274 100 0  274 99 0  275 100 0  275 99 0  276 100 0  276 99 0  277 100 0  277 99 0  278 100 0  278 99 0  279 100 0  279 99 0  280 100 0  280 99 0  281 100 0  281 99 0  282 100 0  282 99 0  283 100 0  283 99 0  284 100 0  284 99 0  285 100 0  285 99 0  286 100 0  286 99 0  287 100 0  287 99 0  288 100 0  288 99 0  289 100 0  289 99 0  290 100 0  290 99 0  291 100 0  291 99 0  292 100 0  292 99 0  293 100 0  293 99 0  294 100 0  294 99 0  295 100 0  295 99 0  296 100 0  296 99 0  297 100 0  297 99 0  298 100 0  298 99 0  299 100 0  299 99 0  300 100 0  300 99 0  301 100 0  301 99 0  302 100 0  302 99 0  303 100 0  303 99 0  304 100 0  304 99 0  305 100 0  305 99 0  306 100 0  306 99 0  307 100 0  307 99 0  308 100 0  308 99 0  309 100 0  309 99 0  310.0000000000001 100 0  310.0000000000001 99 0  311 100 0  311 99 0  312 100 0  312 99 0  312.9999999999999 100 0  312.9999999999999 99 0  314 100 0  314 99 0  315 100 0  315 99 0  315.9999999999999 100 0  315.9999999999999 99 0  317 100 0  317 99 0  318 100 0  318 99 0  319 100 0  319 99 0  320 100 0  320 99 0  321 100 0  321 99 0  322 100 0  322 99 0  323 100 0  323 99 0  324 100 0  324 99 0  325 100 0  325 99 0  326 100 0  326 99 0  327 100 0  327 99 0  328 100 0  328 99 0  329 100 0  329 99 0  330 100 0  330 99 0  331 100 0  331 99 0  332 100 0  332 99 0  333.0000000000001 100 0  333.0000000000001 99 0  334 100 0  334 99 0  335 100 0  335 99 0  336.0000000000001 100 0  336.0000000000001 99 0  337 100 0  337 99 0  338 100 0  338 99 0  338.9999999999999 100 0  338.9999999999999 99 0  340 100 0  340 99 0  341 100 0  341 99 0  341.9999999999999 100 0  341.9999999999999 99 0  343 100 0  343 99 0  344 100 0  344 99 0  345 100 0  345 99 0  346 100 0  346 99 0  347 100 0  347 99 0  348 100 0  348 99 0  349 100 0  349 99 0  350 100 0  350 99 0  351 100 0  351 99 0  352 100 0  352 99 0  353 100 0  353 99 0  354 100 0  354 99 0  355 100 0  355 99 0  356 100 0  356 99 0  357 100 0  357 99 0  358 100 0  358 99 0  359.0000000000001 100 0  359.0000000000001 99 0  360 100 0  360 99 0  361 100 0  361 99 0  362.0000000000001 100 0  362.0000000000001 99 0  363 100 0  363 99 0  364 100 0  364 99 0  364.9999999999999 100 0  364.9999999999999 99 0  366 100 0  366 99 0  367 100 0  367 99 0  368 100 0  368 99 0  369 100 0  369 99 0  370 100 0  370 99 0  371 100 0  371 99 0  372 100 0  372 99 0  373 100 0  373 99 0  374 100 0  374 99 0  375 100 0  375 99 0  376 100 0  376 99 0  377 100 0  377 99 0  378 100 0  378 99 0  379 100 0  379 99 0  380 100 0  380 99 0  381 100 0  381 99 0  382 100 0  382 99 0  383 100 0  383 99 0  384 100 0  384 99 0  385.0000000000001 100 0  385.0000000000001 99 0  386 100 0  386 99 0  387 100 0  387 99 0  387.9999999999999 100 0  387.9999999999999 99 0  389 100 0  389 99 0  390 100 0  390 99 0  390.9999999999999 100 0  390.9999999999999 99 0  392 100 0  392 99 0  393 100 0  393 99 0  394 100 0  394 99 0  395 100 0  395 99 0  396 100 0  396 99 0  397 100 0  397 99 0  398 100 0  398 99 0  399 100 0  399 99 0  400 100 0  400 99 0  401 100 0  401 99 0  402 100 0  402 99 0  403 100 0  403 99 0  404 100 0  404 99 0  405 100 0  405 99 0  406 100 0  406 99 0  407 100 0  407 99 0  408.0000000000001 100 0  408.0000000000001 99 0  409 100 0  409 99 0  410 100 0  410 99 0  411.0000000000001 100 0  411.0000000000001 99 0  412 100 0  412 99 0  413 100 0  413 99 0  413.9999999999999 100 0  413.9999999999999 99 0  415 100 0  415 99 0  416 100 0  416 99 0  416.9999999999999 100 0  416.9999999999999 99 0  418 100 0  418 99 0  419 100 0  419 99 0  420 100 0  420 99 0  421 100 0  421 99 0  422 100 0  422 99 0  423 100 0  423 99 0  424 100 0  424 99 0  425 100 0  425 99 0  426 100 0  426 99 0  427 100 0  427 99 0  428 100 0  428 99 0  429 100 0  429 99 0  430 100 0  430 99 0  431 100 0  431 99 0  432 100 0  432 99 0  433 100 0  433 99 0  434.0000000000001 100 0  434.0000000000001 99 0  435 100 0  435 99 0  436 100 0  436 99 0  437.0000000000001 100 0  437.0000000000001 99 0  438 100 0  438 99 0  439 100 0  439 99 0  439.9999999999999 100 0  439.9999999999999 99 0  441 100 0  441 99 0  442 100 0  442 99 0  443 100 0  443 99 0  444 100 0  444 99 0  445 100 0  445 99 0  446 100 0  446 99 0  447 100 0  447 99 0  448 100 0  448 99 0  449 100 0  449 99 0  450 100 0  450 99 0  451 100 0  451 99 0  452 100 0  452 99 0  453 100 0  453 99 0  454 100 0  454 99 0  455 100 0  455 99 0  456 100 0  456 99 0  457 100 0  457 99 0  458 100 0  458 99 0  459 100 0  459 99 0  460.0000000000001 100 0  460.0000000000001 99 0  461 100 0  461 99 0  462 100 0  462 99 0  462.9999999999999 100 0  462.9999999999999 99 0  464 100 0  464 99 0  465 100 0  465 99 0  465.9999999999999 100 0  465.9999999999999 99 0  467 100 0  467 99 0  468 100 0  468 99 0  469 100 0  469 99 0  470 100 0  470 99 0  471 100 0  471 99 0  472 100 0  472 99 0  473 100 0  473 99 0  474 100 0  474 99 0  475 100 0  475 99 0  476 100 0  476 99 0  477 100 0  477 99 0  478 100 0  478 99 0  479 100 0  479 99 0  480 100 0  480 99 0  481 100 0  481 99 0  482 100 0  482 99 0  483.0000000000001 100 0  483.0000000000001 99 0  484 100 0  484 99 0  485 100 0  485 99 0  486.0000000000001 100 0  486.0000000000001 99 0  487 100 0  487 99 0  488 100 0  488 99 0  488.9999999999999 100 0  488.9999999999999 99 0  490 100 0  490 99 0  491 100 0  491 99 0  491.9999999999999 100 0  491.9999999999999 99 0  493 100 0  493 99 0  494 100 0  4
[...]
<PointData  Scalars="f_34"> 
<DataArray  type="Float64"  Name="f_34"  format="ascii">0.0000000000000000e+00  0.0000000000000000e+00  0.0000000000000000e+00  0.0000000000000000e+00  0.0000000000000000e+00  0.0000000000000000e+00  0.0000000000000000e+00  0.0000000000000000e+00  0.0000000000000000e+00  0.0000000000000000e+00  0.0000000000000000e+00  0.0000000000000000e+00  0.0000000000000000e+00  0.0000000000000000e+00  0.0000000000000000e+00  0.0000000000000000e+00  0.0000000000000000e+00  0.0000000000000000e+00  0.0000000000000000e+00  0.0000000000000000e+00  0.0000000000000000e+00  0.0000000000000000e+00  0.0000000000000000e+00  0.0000000000000000e+00  0.0000000000000000e+00  0.0000000000000000e+00  0.0000000000000000e+00  0.0000000000000000e+00  0.0000000000000000e+00  0.0000000000000000e+00  0.0000000000000000e+00  0.0000000000000000e+00  0.0000000000000000e+00  0.0000000000000000e+00  0.0000000000000000e+00  0.0000000000000000e+00  0.0000000000000000e+00  0.0000000000000000e+00  0.0000000000000000e+00  0.0000000000000000e+00  0.0000000000000000e+00  0.0000000000000000e+00  0.0000000000000000e+00  0.0000000000000000e+00  0.0000000000000000e+00  0.0000000000000000e+00  0.0000000000000000e+00  0.0000000000000000e+00  0.0000000000000000e+00  0.0000000000000000e+00  0.0000000000000000e+00  0.0000000000000000e+00  0.0000000000000000e+00  0.0000000000000000e+00  0.0000000000000000e+00  0.0000000000000000e+00  0.0000000000000000e+00  0.0000000000000000e+00  0.0000000000000000e+00  0.0000000000000000e+00  0.0000000000000000e+00  0.0000000000000000e+00  0.0000000000000000e+00  0.0000000000000000e+00  0.0000000000000000e+00  0.0000000000000000e+00  0.0000000000000000e+00  0.0000000000000000e+00  0.0000000000000000e+00  0.0000000000000000e+00  0.0000000000000000e+00  0.0000000000000000e+00  0.0000000000000000e+00  0.0000000000000000e+00  0.0000000000000000e+00  0.0000000000000000e+00  0.0000000000000000e+00  0.0000000000000000e+00  0.0000000000000000e+00  0.0000000000000000e+00  0.0000000000000000e+00  0.0000000000000000e+00  0.0000000000000000e+00  0.0000000000000000e+00  0.0000000000000000e+00  0.0000000000000000e+00  0.0000000000000000e+00  0.0000000000000000e+00  0.0000000000000000e+00  0.0000000000000000e+00  0.0000000000000000e+00  0.0000000000000000e+00  0.0000000000000000e+00  0.0000000000000000e+00  0.0000000000000000e+00  0.0000000000000000e+00  0.0000000000000000e+00  0.0000000000000000e+00  0.0000000000000000e+00  0.0000000000000000e+00  0.0000000000000000e+00  0.0000000000000000e+00  0.0000000000000000e+00  0.0000000000000000e+00  0.0000000000000000e+00  0.0000000000000000e+00  0.0000000000000000e+00  0.0000000000000000e+00  0.0000000000000000e+00  0.0000000000000000e+00  0.0000000000000000e+00  0.0000000000000000e+00  0.0000000000000000e+00  0.0000000000000000e+00  0.0000000000000000e+00  0.0000000000000000e+00  0.0000000000000000e+00  0.0000000000000000e+00  0.0000000000000000e+00  0.0000000000000000e+00  0.0000000000000000e+00  0.0000000000000000e+00  0.0000000000000000e+00  0.0000000000000000e+00  0.0000000000000000e+00  0.0000000000000000e+00  0.0000000000000000e+00  0.0000000000000000e+00  0.0000000000000000e+00  0.0000000000000000e+00  0.0000000000000000e+00  0.0000000000000000e+00  0.0000000000000000e+00  0.0000000000000000e+00  0.0000000000000000e+00  0.0000000000000000e+00  0.0000000000000000e+00  0.0000000000000000e+00  0.0000000000000000e+00  0.0000000000000000e+00  0.0000000000000000e+00  0.0000000000000000e+00  0.0000000000000000e+00  0.0000000000000000e+00  0.0000000000000000e+00  0.0000000000000000e+00  0.0000000000000000e+00  0.0000000000000000e+00  0.0000000000000000e+00  0.0000000000000000e+00  0.0000000000000000e+00  0.0000000000000000e+00  0.0000000000000000e+00  0.0000000000000000e+00  0.0000000000000000e+00  0.0000000000000000e+00  0.0000000000000000e+00  0.0000000000000000e+00  0.0000000000000000e+00  0.0000000000000000e+00  0.0000000000000000e+00  0.0000000000000000e+00  0.0000000000000000e+00  0.0000000000000000e+00  0.0000000000000000e+00  0.0000000000000000e+00  0.0000000000000000e+00  0.0000000000000000e+00  0.0000000000000000e+00  0.0000000000000000e+00  0.0000000000000000e+00  0.0000000000000000e+00  0.0000000000000000e+00  0.0000000000000000e+00  0.0000000000000000e+00  0.0000000000000000e+00  0.0000000000000000e+00  0.0000000000000000e+00  0.0000000000000000e+00  0.0000000000000000e+00  0.0000000000000000e+00  0.0000000000000000e+00  0.0000000000000000e+00  0.0000000000000000e+00  0.0000000000000000e+00  0.0000000000000000e+00  0.0000000000000000e+00  0.0000000000000000e+00  0.0000000000000000e+00  0.0000000000000000e+00  0.0000000000000000e+00  0.0000000000000000e+00  0.0000000000000000e+00  0.0000000000000000e+00  0.0000000000000000e+00  0.0000000000000000e+00  0.0000000000000000e+00  0.0000000000000000e+00  0.0000000000000000e+00  0.0000000000000000e+00  0.0000000000000000e+00  0.0000000000000000e+00  0.0000000000000000e+00  0.0000000000000000e+00  0.0000000000000000e+00  0.0000000000000000e+00  0.0000000000000000e+00  0.0000000000000000e+00  0.0000000000000000e+00  0.0000000000000000e+00  0.0000000000000000e+00  0.0000000000000000e+00  0.0000000000000000e+00  0.0000000000000000e+00  0.0000000000000000e+00  0.0000000000000000e+00  0.0000000000000000e+00  0.0000000000000000e+00  0.0000000000000000e+00  0.0000000000000000e+00  0.0000000000000000e+00  0.0000000000000000e+00  0.0000000000000000e+00  0.0000000000000000e+00  0.0000000000000000e+00  0.0000000000000000e+00  0.0000000000000000e+00  0.0000000000000000e+00  0.0000000000000000e+00  0.0000000000000000e+00  0.0000000000000000e+00  0.0000000000000000e+00  0.0000000000000000e+00  0.0000000000000000e+00  0.0000000000000000e+00  0.0000000000000000e+00  0.0000000000000000e+00  0.0000000000000000e+00  0.0000000000000000e+00  0.0000000000000000e+00  0.0000000000000000e+00  0.0000000000000000e+00  0.0000000000000000e+00  0.0000000000000000e+00  0.0000000000000000e+00  0.0000000000000000e+00  0.0000000000000000e+00  0.0000000000000000e+00  0.0000000000000000e+00  0.0000000000000000e+00  0.0000000000000000e+00  0.0000000000000000e+00  0.0000000000000000e+00  0.0000000000000000e+00  0.0000000000000000e+00  0.0000000000000000e+00  0.0000000000000000e+00  0.0000000000000000e+00  0.0000000000000000e+00  0.0000000000000000e+00  0.0000000000000000e+00  0.0000000000000000e+00  0.0000000000000000e+00  0.0000000000000000e+00  0.0000000000000000e+00  0.0000000000000000e+00  0.0000000000000000e+00  0.0000000000000000e+00  0.0000000000000000e+00  0.0000000000000000e+00  0.0000000000000000e+00  0.0000000000000000e+00  0.0000000000000000e+00  0.0000000000000000e+00  0.0000000000000000e+00  0.0000000000000000e+00  0.0000000000000000e+00  0.0000000000000000e+00  0.0000000000000000e+00  0.0000000000000000e+00  0.0000000000000000e+00  0.0000000000000000e+00  0.0000000000000000e+00  0.0000000000000000e+00  0.0000000000000000e+00  0.0000000000000000e+00  0.0000000000000000e+00  0.0000000000000000e+00  0.0000000000000000e+00  0.0000000000000000e+00  0.0000000000000000e+00  0.0000000000000000e+00  0.0000000000000000e+00  0.0000000000000000e+00  0.0000000000000000e+00  0.0000000000000000e+00  0.0000000000000000e+00  0.0000000000000000e+00  0.0000000000000000e+00  0.0000000000000000e+00  0.0000000000000000e+00  0.0000000000000000e+00  0.0000000000000000e+00  0.0000000000000000e+00  0.0000000000000000e+00  0.0000000000000000e+00  0.0000000000000000e+00  0.0000000000000000e+00  0.0000000000000000e+00  0.0000000000000000e+00  0.0000000000000000e+00  0.0000000000000000e+00  0.0000000000000000e+00  0.0000000000000000e+00  0.0000000000000000e+00  0.0000000000000000e+00  0.0000000000000000e+00  0.0000000000000000e+00  0.0000000000000000e+00  0.0000000000000000e+00  0.0000000000000000e+00  0.0000000000000000e+00  0.0000000000000000e+00  0.0000000000000000e+00  0.0000000000000000e+00  0.0000000000000000e+00  0.0000000000000000e+00  0.0000000000000000e+00  0.0000000000000000e+00  0.0000000000000000e+00  0.0000000000000000e+00  0.0000000000000000e+00  0.0000000000000000e+00  0.0000000000000000e+00  0.0000000000000000e+00  0.0000000000000000e+00  0.0000000000000000e+00  0.0000000000000000e+00  0.0000000000000000e+00  0.0000000000000000e+00  0.0000000000000000e+00  0.0000000000000000e+00  0.0000000000000000e+00  0.0000000000000000e+00  0.0000000000000000e+00  0.0000000000000000e+00  0.0000000000000000e+00  0.0000000000000000e+00  0.0000000000000000e+00  0.0000000000000000e+00  0.0000000000000000e+00  0.0000000000000000e+00  0.0000000000000000e+00  0.0000000000000000e+00  0.0000000000000000e+00  0.0000000000000000e+00  0.0000000000000000e+00  0.0000000000000000e+00  0.0000000000000000e+00  0.0000000000000000e+00  0.0000000000000000e+00  0.0000000000000000e+00  0.0000000000000000e+00  0.0000000000000000e+00  0.0000000000000000e+00  0.0000000000000000e+00  0.0000000000000000e+00  0.0000000000000000e+00  0.0000000000000000e+00  0.0000000000000000e+00  0.0000000000000000e+00  0.0000000000000000e+00  0.0000000000000000e+00  0.0000000000000000e+00  0.0000000000000000e+00  0.0000000000000000e+00  0.0000000000000000e+00  0.0000000000000000e+00  0.0000000000000000e+00  0.0000000000000000e+00  0.0000000000000000e+00  0.0000000000000000e+00  0.0000000000000000e+00  0.0000000000000000e+00  0.0000000000000000e+00  0.0000000000000000e+00  0.0000000000000000e+00  0.0000000000000000e+00  0.0000000000000000e+00  0.0000000000000000e+00  0.0000000000000000e+00  0.0000000000000000e+00  0.0000000000000000e+00  0.0000000000000000e+00  0.0000000000000000e+00  0.0000000000000000e+00  0.0000000000000000e+00  0.0000000000000000e+00  0.0000000000000000e+00  0.0000000000000000e+00  0.0000000000000000e+00  0.0000000000000000e+00  0.0000000000000000e+00  0.0000000000000000e+00  0.0000000000000000e+00  0.0000000000000000e+00  0.0000000000000000e+00  0.0000000000000000e+00  0.0000000000000000e+00  0.0000000000000000e+00  0.0000000000000000e+00  0.0000000000000000e+00  0.0000000000000000e+00  0.0000000000000000e+00  0.0000000000000000e+00  0.0000000000000000e+00  0.0000000000000000e+00  0.0000000000000000e+00  0.0000000000000000e+00  0.0000000000000000e+00  0.0000000000000000e+00  0.0000000000000000e+00  0.0000000000000000e+00  0.0000000000000000e+00  0.0000000000000000e+00  0.0000000000000000e+00  0.0000000000000000e+00  0.0000000000000000e+00  0.0000000000000000e+00  0.0000000000000000e+00  0.0000000000000000e+00  0.0000000000000000e+00  0.0000000000000000e+00  0.0000000000000000e+00  0.0000000000000000e+00  0.0000000000000000e+00  0.0000000000000000e+00  0.0000000000000000e+00  0.0000000000000000e+00  0.0000000000000000e+00  0.0000000000000000e+00  0.0000000000000000e+00  0.0000000000000000e+00  0.0000000000000000e+00  0.0000000000000000e+00  0.0000000000000000e+00  0.0000000000000000e+00  0.0000000000000000e+00  0.0000000000000000e+00  0.0000000000000000e+00  0.0000000000000000e+00  0.0000000000000000e+00  0.0000000000000000e+00  0.0000000000000000e+00  0.0000000000000000e+00  0.0000000000000000e+00  0.0000000000000000e+00  0.0000000000000000e+00  0.0000000000000000e+00  0.0000000000000000e+00  0.0000000000000000e+00  0.0000000000000000e+00  0.0000000000000000e+00  0.0000000000000000e+00  0.0000000000000000e+00  0.0000000000000000e+00  0.0000000000000000e+00  0.0000000000000000e+00  0.0000000000000000e+00  0.0000000000000000e+00  0.0000000000000000e+00  0.0000000000000000e+00  0.0000000000000000e+00  0.0000000000000000e+00  0.0000000000000000e+00  0.0000000000000000e+00  0.0000000000000000e+00  0.0000000000000000e+00  0.0000000000000000e+00  0.0000000000000000e+00  0.0000000000000000e+00  0.0000000000000000e+00  0.0000000000000000e+00  0.0000000000000000e+00  0.0000000000000000e+00  0.0000000000000000e+00  0.0000000000000000e+00  0.0000000000000000e+00  0.0000000000000000e+00  0.0000000000000000e+00  0.0000000000000000e+00  0.0000000000000000e+00  0.0000000000000000e+00  0.0000000000000000e+00  0.0000000000000000e+00  0.0000000000000000e+00  0.0000000000000000e+00  0.0000000000000000e+00  0.0000000000000000e+00  0.0000000000000000e+00  0.0000000000000000e+00  0.0000000000000000e+00  0.0000000000000000e+00  0.0000000000000000e+00  0.0000000000000000e+00  0.0000000000000000e+00  0.0000000000000000e+00  0.0000000000000000e+00  0.0000000000000000e+00  0.0000000000000000e+00  0.0000000000000000e+00  0.0000000000000000e+00  0.0000000000000000e+00  0.0000000000000000e+00  0.0000000000000000e+00  0.0000000000000000e+00  0.0000000000000000e+00  0.0000000000000000e+00  0.0000000000000000e+00  0.0000000000000000e+00  0.0000000000000000e+00  0.0000000000000000e+00  0.0000000000000000e+00  0.0000000000000000e+00  0.0000000000000000e+00  0.0000000000000000e+00  0.0000000000000000e+00  0.0000000000000000e+00  0.0000000000000000e+00  0.0000000000000000e+00  0.0000000000000000e+00  0.0000000000000000e+00  0.0000000000000000e+00  0.0000000000000000e+00  0.0000000000000000e+00  0.0000000000000000e+00  0.0000000000000000e+00  0.0000000000000000e+00  0.0000000000000000e+00  0.0000000000000000e+00  0.0000000000000000e+00  0.0000000000000000e+00  0.0000000000000000e+00  0.0000000000000000e+00  0.0000000000000000e+00  0.0000000000000000e+00  0.0000000000000000e+00  0.0000000000000000e+00  0.0000000000000000e+00  0.0000000000000000e+00  0.0000000000000000e+00  0.0000000000000000e+00  0.0000000000000000e+00  0.0000000000000000e+00  0.0000000000000000e+00  0.0000000000000000e+00  0.0000000000000000e+00  0.0000000000000000e+00  0.0000000000000000e+00  0.0000000000000000e+00  0.0000000000000000e+00  0.0000000000000000e+00  0.0000000000000000e+00  0.0000000000000000e+00  0.0000000000000000e+00  0.0000000000000000e+00  0.0000000000000000e+00  0.0000000000000000e+00  0.0000000000000000e+00  0.0000000000000000e+00  0.0000000000000000e+00  0.0000000000000000e+00  0.0000000000000000e+00  0.0000000000000000e+00  0.0000000000000000e+00  0.0000000000000000e+00  0.0000000000000000e+00  0.0000000000000000e+00  0.0000000000000000e+00  0.0000000000000000e+00  0.0000000000000000e+00  0.0000000000000000e+00  0.0000000000000000e+00  0.0000000000000000e+00  0.0000000000000000e+00  0.0000000000000000e+00  0.0000000000000000e+00  0.0000000000000000e+00  0.0000000000000000e+00  0.0000000000000000e+00  0.0000000000000000e+00  0.0000000000000000e+00  0.0000000000000000e+00  0.0000000000000000e+00  0.0000000000000000e+00  0.0000000000000000e+00  0.0000000000000000e+00  0.0000000000000000e+00  0.0000000000000000e+00  0.0000000000000000e+00  0.0000000000000000e+00  0.0000000000000000e+00  0.0000000000000000e+00  0.0000000000000000e+00  0.0000000000000000e+00  0.0000000000000000e+00  0.0000000000000000e+00  0.0000000000000000e+00  0.0000000000000000e+00  0.0000000000000000e+00  0.0000000000000000e+00  0.0000000000000000e+00  0.0000000000000000e+00  0.0000000000000000e+00  0.0000000000000000e+00  0.0000000000000000e+00  0.0000000000000000e+00  0.0000000000000000e+00  0.0000000000000000e+00  0.0000000000000000e+00  0.0000000000000000e+00  0.0000000000000000e+00  0.0000000000000000e+00  0.0000000000000000e+00  0.0000000000000000e+00  0.0000000000000000e+00  0.0000000000000000e+00  0.0000000000000000e+00  0.0000000000000000e+00  0.0000000000000000e+00  0.0000000000000000e+00  0.0000000000000000e+00  0.0000000000000000e+00  0.0000000000000000e+00  0.0000000000000000e+00  0.0000000000000000e+00  0.0000000000000000e+00  0.0000000000000000e+00  0.0000000000000000e+00  0.0000000000000000e+00  0.0000000000000000e+00  0.0000000000000000e+00  0.0000000000000000e+00  0.0000000000000000e+00  0.0000000000000000e+00  0.0000000000000000e+00  0.0000000000000000e+00  0.0000000000000000e+00  0.0000000000000000e+00  0.0000000000000000e+00  0.0000000000000000e+00  0.0000000000000000e+00  0.0000000000000000e+00  0.0000000000000000e+00  0.0000000000000000e+00  0.0000000000000000e+00  0.0000000000000000e+00  0.0000000000000000e+00  0.0000000000000000e+00  0.0000000000000000e+00  0.0000000000000000e+00  0.0000000000000000e+00  0.0000000000000000e+00  0.0000000000000000e+00  0.0000000000000000e+00  0.0000000000000000e+00  0.0000000000000000e+00  0.0000000000000000e+00  0.0000000000000000e+00  0.0000000000000000e+00  0.0000000000000000e+00  0.0000000000000000e+00  0.0000000000000000e+00  0.0000000000000000e+00  0.0000000000000000e+00  0.0000000000000000e+00  0.0000000000000000e+00  0.0000000000000000e+00  0.0000000000000000e+00  0.0000000000000000e+00  0.0000000000000000e+00  0.0000000000000000e+00  0.0000000000000000e+00  0.0000000000000000e+00  0.0000000000000000e+00  0.0000000000000000e+00  0.0000000000000000e+00  0.0000000000000000e+00  0.0000000000000000e+00  0.0000000000000000e+00  0.0000000000000000e+00  0.0000000000000000e+00  0.0000000000000000e+00  0.0000000000000000e+00  0.0000000000000000e+00  0.0000000000000000e+00  0.0000000000000000e+00  0.0000000000000000e+00  0.0000000000000000e+00  0.0000000000000000e+00  0.0000000000000000e+00  0.0000000000000000e+00  0.0000000000000000e+00  0.0000000000000000e+00  0.0000000000000000e+00  0.0000000000000000e+00  0.0000000000000000e+00  0.0000000000000000e+00  0.0000000000000000e+00  0.0000000000000000e+00  0.0000000000000000e+00  0.0000000000000000e+00  0.0000000000000000e+00  0.0000000000000000e+00  0.0000000000000000e+00  0.0000000000000000e+00  0.0000000000000000e+00  0.0000000000000000e+00  0.0000000000000000e+00  0.0000000000000000e+00  0.0000000000000000e+00  0.0000000000000000e+00  0.0000000000000000e+00  0.0000000000000000e+00  0.0000000000000000e+00  0.0000000000000000e+00  0.0000000000000000e+00  0.0000000000000000e+00  0.0000000000000000e+00  0.0000000000000000e+00  0.0000000000000000e+00  0.0000000000000000e+00  0.0000000000000000e+00  0.0000000000000000e+00  0.0000000000000000e+00  0.0000000000000000e+00  0.0000000000000000e+00  0.0000000000000000e+00  0.0000000000000000e+00  0.0000000000000000e+00  0.0000000000000000e+00  0.0000000000000000e+00  0.0000000000000000e+00  0.0000000000000000e+00  0.0000000000000000e+00  0.0000000000000000e+00  0.0000000000000000e+00  0.0000000000000000e+00  0.0000000000000000e+00  0.0000000000000000e+00  0.0000000000000000e+00  0.0000000000000000e+00  0.0000000000000000e+00  0.0000000000000000e+00  0.0000000000000000e+00  0.0000000000000000e+00  0.0000000000000000e+00  0.0000000000000000e+00  0.0000000000000000e+00  0.0000000000000000e+00  0.0000000000000000e+00  0.0000000000000000e+00  0.0000000000000000e+00  0.0000000000000000e+00  0.0000000000000000e+00  0.0000000000000000e+00  0.0000000000000000e+00  0.0000000000000000e+00  0.0000000000000000e+00  0.0000000000000000e+00  0.0000000000000000e+00  0.0000000000000000e+00  0.0000000000000000e+00  0.0000000000000000e+00  0.0000000000000000e+00  0.0000000000000000e+00  0.0000000000000000e+00  0.0000000000000000e+00  0.0000000000000000e+00  0.0000000000000000e+00  0.0000000000000000e+00  0.0000000000000000e+00  0.0000000000000000e+00  0.0000000000000000e+00  0.0000000000000000e+00  0.0000000000000000e+00  0.0000000000000000e+00  0.0000000000000000e+00  0.0000000000000000e+00  0.0000000000000000e+00  0.0000000000000000e+00  0.0000000000000000e+00  0.0000000000000000e+00  0.0000000000000000e+00  0.0000000000000000e+00  0.0000000000000000e+00  0.0000000000000000e+00  0.0000000000000000e+00  0.0000000000000000e+00  0.0000000000000000e+00  0.0000000000000000e+00  0.0000000000000000e+00  0.0000000000000000e+00  0.0000000000000000e+00  0.0000000000000000e+00  0.0000000000000000e+00  0.0000000000000000e+00  0.0000000000000000e+00  0.0000000000000000e+00  0.0000000000000000e+00  0.0000000000000000e+00  0.0000000000000000e+00  0.0000000000000000e+00  0.0000000000000000e+00  0.0000000000000000e+00  0.0000000000000000e+00  0.0000000000000000e+00  0.0000000000000000e+00  0.0000000000000000e+00  0.0000000000000000e+00  0.0000000000000000e+00  0.0000000000000000e+00  0.0000000000000000e+00  0.0000000000000000e+00  0.0000000000000000e+00  0.0000000000000000e+00  0.0000000000000000e+00  0.0000000000000000e+00  0.0000000000000000e+00  0.0000000000000000e