<?xml version="1.0"?>
<VTKFile type="UnstructuredGrid"  version="0.1"  >
<UnstructuredGrid>
<Piece  NumberOfPoints="1067" NumberOfCells="1963">
<Points>
<DataArray  type="Float64"  NumberOfComponents="3"  format="ascii">1 0.3333333333333333 0  0.3333333333333333 0.3333333333333333 0  0.3333333333333333 1 0  0 1 0  0 0 0  1 0 0  0 0.5 0  0.5 0 0  0.3333333333333333 0.6666666666666666 0  0.6666666666666666 0.3333333333333333 0  0 0.75 0  0.25 0 0  0 0.25 0  0.75 0 0  0.1666666666666667 1 0  1 0.1666666666666667 0  0.3333333333333333 0.8333333333333333 0  0.375 0.1458333333333333 0  0.1888706140350877 0.2028508771929824 0  0.3333333333333333 0.5 0  0.8333333333333333 0.3333333333333333 0  0.1524989287154668 0.388331190764267 0  0.5 0.3333333333333333 0  0.5833333333333333 0.1666666666666667 0  0.1458333333333333 0.625 0  0.1583333333333333 0.825 0  0.825 0.1583333333333333 0  0.125 0 0  0 0.125 0  0 0.625 0  0 0.375 0  0.375 0 0  0.625 0 0  0 0.875 0  0.875 0 0  0.7057909604519773 0.2096045197740113 0  0.2033782928772914 0.5081924393159372 0  0.2229753521126761 0.720569248826291 0  0.2420454545454545 0.9087121212121212 0  0.9087121212121212 0.2420454545454545 0  0.4166666666666666 0.3333333333333333 0  0.4732142857142856 0.2157738095238095 0  0.6750921898496802 0.1010647141290868 0  0.3333333333333333 0.4166666666666666 0  0.4768915210573477 0.1066808275729647 0  0.1147181409008132 0.1147181409008132 0  0.219827215200512 0.1015435406570343 0  0.9154835390946502 0.0998456790123457 0  0.09984567901234567 0.9154835390946502 0  0.08229580025091013 0.3125 0  0.2490424622725705 0.6032672531067658 0  0.1006393784575282 0.5301568362439949 0  0.1169995413985014 0.727192736995927 0  0.2263966689731509 0.3065158354789739 0  0.2966728635224111 0.2224517248151044 0  0.09043699241737507 0.2104089341806989 0  0.3125 0.07291666666666667 0  0.07292806175162128 0.4396297689259239 0  0.6224176247481331 0.2512911876259334 0  0.239864329746879 0.4219752441630512 0  0.5625 0.06938154200389178 0  0.75 0.3333333333333333 0  0.7927489005587869 0.2475675126718038 0  0.3859676904520978 0.2461869149974528 0  0.2462310606060606 0.8208143939393939 0  0.7653408376112384 0.08966311200871162 0  0.06732456140350877 0.8125 0  0.3333333333333333 0.9166666666666666 0  0.9166666666666666 0.3333333333333333 0  0.08333333333333333 1 0  0.25 1 0  1 0.08333333333333333 0  1 0.25 0  0.3333333333333333 0.5833333333333333 0  0.3333333333333333 0.75 0  0.5833333333333333 0.3333333333333333 0  0.0625 0 0  0.07291666666666666 0.6595905945441375 0  0.5475816768684841 0.2345166678984481 0  0.1528924117958546 0.2744993329916797 0  0.8411372533802133 0.08406325820630503 0  0.2996637983602427 0.1471631728340777 0  0.4375 0 0  0.4054493459461466 0.07291666666666667 0  0.1440801191314338 0.4626342544081788 0  0.1716727459783015 0.9273685933408156 0  0.8968270669659558 0.1702183875794987 0  0 0.0625 0  0.1875 0 0  0 0.5625 0  0.1617554577346029 0.06411357198912754 0  0.7547177919703033 0.1591425659812248 0  0.2702765804490694 0.5345649711785327 0  0.08689030765479462 0.5948977651265637 0  0.7310390069598418 0.2703457257914622 0  0.9375 0 0  0 0.9375 0  0.4447477682500287 0.2744608764698752 0  0.1606803622837728 0.5597358803146593 0  0.6438968569972591 0.1900329824943801 0  0.2840816202988848 0.375 0  0.08880121935117018 0.3768893831475786 0  0.05501898908686768 0.09374999999999997 0  0.6875 0 0  0.8125 0 0  0 0.8125 0  0.5625 0 0  0 0.4375 0  0 0.1875 0  0 0.3125 0  0.3125 0 0  0 0.6875 0  0.2481953317884629 0.1828222069759379 0  0.237975717832275 0.2447888085739308 0  0.200176069352744 0.7786785170136837 0  0.2659174273276675 0.668564588774316 0  0.2014269398862459 0.6590442473968234 0  0.5361902489011917 0.1258889624633807 0  0.0675070920211801 0.1536645476496686 0  0.2888145418135863 0.4583333333333333 0  0.4389152459630969 0.1600092138755295 0  0.06106116270695027 0.7517361165768591 0  0.7150766468061498 0.05467962723819628 0  0.875 0.290973532000503 0  0.2909735320005029 0.875 0  0.8526144869835004 0.2144309675619541 0  0.9576401986671697 0.2083333333333333 0  0.2041847451790633 0.8628607093663911 0  0.9510163659495721 0.2843496992829054 0  0.2916666666666666 0.9583333333333333 0  0.09375 0.04966715310055026 0  0.6119161044147912 0.109672485429145 0  0.3311579498979588 0.2725512966323962 0  0.226425945410618 0.3650275865962277 0  0.1369397361142181 0.1712827978808029 0  0.2809701888780682 0.724725903187628 0  0.1379758826391655 0.3313643799237706 0  0.4586557180124523 0.05280132961106423 0  0.6887598321031895 0.1558102714243457 0  0.65625 0.04745742439875293 0  0.2861303319373879 0.7809153736790874 0  0.5038734826777268 0.2743345010629015 0  0.6773935352591479 0.2570263390181576 0  0.2798361614180057 0.3200395848847201 0  0.4949315857333921 0.1639857595809101 0  0.3380360928888468 0.186391247091096 0  0.1688076847263596 0.7050048004434435 0  0.1694932372870325 0.1258468186031997 0  0.1076591942820013 0.8563894303660385 0  0.05624279564308041 0.8796546858602379 0  0.125 1 0  0.8864787227825769 0.05347591410888117 0  0.9476420027807178 0.1460305506667086 0  0.2083333333333333 1 0  0.213464560872628 0.04765155683629457 0  0.1244815016517538 0.6741396688406132 0  0.1465842514222262 0.7723276599236152 0  0.04547383511106311 0.53125 0  0.2148758403578392 0.5611737930029497 0  0.3333333333333333 0.625 0  0.5120285103269483 0.05200579557286625 0  0.5557882597572179 0.2874233127303565 0  0.375 0.3333333333333333 0  0.05524798880942433 0.9506415704763231 0  0.9506415704763231 0.05524798880942434 0  0.1972666160395715 0.4547772398129902 0  0.04497829106973091 0.3487936014085283 0  0.05790539181627354 0.2591848609776979 0  0.8711365685983223 0.1257482348431603 0  0.2656491149947962 0.04983052048065093 0  0.8005870837483613 0.050967748851606 0  0.7230963420004116 0.1181590083901302 0  0.4218965800639618 0.2089072825214489 0  0.2811906938680201 0.2700269437372825 0  0.2495323619810901 0.4891505615133008 0  0.1991280016626992 0.6088690683261796 0  0.1409277024673874 0.2232207459103052 0  0.1468243620559488 0.512134886024921 0  0.03740774492937259 0.40625 0  0.2155422481162296 0.950793421692112 0  0.212106654032322 0.1498280878297097 0  0.2713550318729565 0.1040361211330102 0  0.1546665765869578 0.8783505049416189 0  0.6100874230054322 0.06146588433646355 0  0.7902906254281675 0.1962338398758094 0  0.1067887845369411 0.2582214394389009 0  0.3589746729730733 0.09632528030879431 0  0.3550972168408855 0.0461845191969495 0  0.7916666666666666 0.3333333333333333 0  0.04616482742057831 0.4815335788736005 0  0.7513486987797579 0.2238243946198433 0  0.8259111874430654 0.2843602986749449 0  0.1145135976767541 0.4167726763769093 0  0.09410347318951218 0.4826526468125477 0  0.1812616873741859 0.3506638009287041 0  0.04554546899361216 0.04637072539374764 0  0.197422420807303 0.4019311843643738 0  0.4299858672887971 0.1134643652332322 0  0.0461436106684496 0.1953024172515056 0  0.625 0.3333333333333333 0  0.6460078293604408 0.2915217509574419 0  0.6015642854289754 0.209584508987618 0  0.07463129964138498 0.7066466298758631 0  0.03783322102651011 0.59375 0  0.3958333333333333 0.2916919124978751 0  0.114022055899838 0.8100633326221395 0  0.7895154684417436 0.1289111178903929 0  0.600799783427331 0.2916355696893704 0  0.84375 0.03418030363172077 0  0.1917755503464407 0.2491670256216106 0  0.7083333333333333 0.3333333333333333 0  0.6478078564061464 0.1369553479973995 0  0.03144377545163998 0.71875 0  0.5384938547867213 0.1863839274804893 0  0.1306476667572267 0.952317581765362 0  0.2892367660002514 0.83086877593361 0  0.2481080288456043 0.865149100485581 0  0.03366228070175439 0.8414367919466372 0  0.7708333333333333 0.2927142374723782 0  0.2495866311601397 0.7559396780718943 0  0.2937576828079838 0.6041666666666666 0  0.3821593549415586 0.1894814149447491 0  0.3445642076128221 0.2302669507453929 0  0 0.78125 0  0.9599981637499104 0.1031385892720535 0  0.7574153542120744 0.04322853446886453 0  0.204050893649534 0.8206805424098645 0  0.2913165163454587 0.4163901636011871 0  0.2916638078313682 0.9166638078313682 0  0.3333333333333333 0.7083333333333333 0  0.3333333333333333 0.9583333333333333 0  0.3333333333333333 0.875 0  0.875 0.3333333333333333 0  0.4583333333333333 0.3333333333333333 0  0.3333333333333333 0.4583333333333333 0  0.9583333333333333 0.3333333333333333 0  1 0.2083333333333333 0  0.04166666666666666 1 0  1 0.04166666666666666 0  1 0.125 0  0.2916666666666666 1 0  0.3333333333333333 0.375 0  1 0.2916666666666666 0  0.5416666666666666 0.3333333333333333 0  0.3333333333333333 0.7916666666666666 0  0.3333333333333333 0.5416666666666666 0  0.1016069174729423 0.7681284775865405 0  0.6875 0.2973545198413665 0  0.04114790012545506 0.3075231959253509 0  0.2587887510102507 0.1431391960771147 0  0.1193245108135817 0.5679554230146414 0  0.1825380957195719 0.3068227309779981 0  0.1661760896432419 0.4282623189518068 0  0.1070276360235576 0.637347074818211 0  0 0.65625 0  0.03997879087021122 0.6348742039918381 0  0 0.90625 0  0.2979556257795157 0.6441983605310423 0  0.1769907023833003 0.7450354670868354 0  0.854811597523172 0.2553331016660396 0  0.2978902581390474 0.5640107983913386 0  0.422190360774741 0.03677291521413537 0  0.11934455203393 0.2960881760558284 0  0.288741907148047 0.4986855138502997 0  0.1618938936523733 0.6611871845610839 0  0.2987993331180339 0.6898492748391704 0  0.1759603428125616 0.1655905128188335 0  0.3370542346566173 0.1307683920597218 0  0.03886648645263804 0.6798368859108999 0  0.582137712504897 0.2556718560956591 0  0.5811816160381472 0.03469077100194589 0  0.5279722974875536 0.08768410328535482 0  0.5719976896208205 0.108182244938876 0  0.5126558232993131 0.216186636111048 0  0.2544607546659688 0.945918033212819 0  0.9136179827478804 0.2946597939900734 0  0.96132646065674 0.2469513160812137 0  0.6417305609928732 0.08267582195367543 0  0.8333983588276207 0.1212699393091796 0  0.8033911384781 0.08892182866041928 0  0.07360238009281882 0.5582453860506698 0  0 0.15625 0 
[...]
<PointData  Vectors="f_30"> 
<DataArray  type="Float64"  Name="f_30"  NumberOfComponents="3" format="ascii">0.0000000000000000e+00 -2.0000000000000001e-01 0.0000000000000000e+00  -2.5409201220500773e-02 -2.2656443798528516e-02 0.0000000000000000e+00  0.0000000000000000e+00 0.0000000000000000e+00 0.0000000000000000e+00  0.0000000000000000e+00 0.0000000000000000e+00 0.0000000000000000e+00  -7.9308993959643234e-02 2.2959507620130833e-02 0.0000000000000000e+00  -9.8374726783231864e-02 -1.9136327012297899e-01 0.0000000000000000e+00  -1.3638972895325757e-02 1.1568846527261102e-02 0.0000000000000000e+00  -9.0331822364688091e-02 -6.0885761830521044e-02 0.0000000000000000e+00  -4.9397795563770617e-03 -8.2827108408942661e-03 0.0000000000000000e+00  -1.2301815933022407e-02 -1.0126188042813779e-01 0.0000000000000000e+00  -1.9207809123086505e-03 4.2406344269574287e-03 0.0000000000000000e+00  -8.1758729671921576e-02 -1.3608667862333222e-02 0.0000000000000000e+00  -4.1058536849013928e-02 2.0485219863591322e-02 0.0000000000000000e+00  -9.6666001869050208e-02 -1.2282401648045868e-01 0.0000000000000000e+00  0.0000000000000000e+00 0.0000000000000000e+00 0.0000000000000000e+00  -5.3454688120384425e-02 -1.9205815332825402e-01 0.0000000000000000e+00  -8.5346137979816082e-04 -3.4290855583350034e-03 0.0000000000000000e+00  -5.8085628598095677e-02 -3.3578803690649653e-02 0.0000000000000000e+00  -4.7227774658069037e-02 -3.7462279042623056e-03 0.0000000000000000e+00  -1.3816776039499101e-02 -1.4237076810516574e-02 0.0000000000000000e+00  -8.1538237018144843e-03 -1.4550840556106842e-01 0.0000000000000000e+00  -2.2147076432853238e-02 -1.4413063053829924e-04 0.0000000000000000e+00  -1.7497693570086358e-02 -6.0971313662747564e-02 0.0000000000000000e+00  -5.3929933790373023e-02 -7.9461338177009358e-02 0.0000000000000000e+00  -5.4182608531621141e-03 -1.0739124614335301e-05 0.0000000000000000e+00  -1.4290701546693548e-05 -3.1594134486632688e-04 0.0000000000000000e+00  -5.5735556532868137e-02 -1.4275362900196484e-01 0.0000000000000000e+00  -7.9566085965276312e-02 4.6917292297379669e-03 0.0000000000000000e+00  -6.0156481778951616e-02 2.2703568960453460e-02 0.0000000000000000e+00  -6.2400724954100898e-03 7.5274226662109299e-03 0.0000000000000000e+00  -2.5042239655401824e-02 1.6257656015801859e-02 0.0000000000000000e+00  -8.5905011288554503e-02 -3.5005673663191621e-02 0.0000000000000000e+00  -9.3982112556306480e-02 -9.0482676610378301e-02 0.0000000000000000e+00  -1.1074663801729813e-04 1.6583823040335454e-03 0.0000000000000000e+00  -9.8156209746398979e-02 -1.5699303829619385e-01 0.0000000000000000e+00  -4.2862248828078285e-02 -1.1055039200671186e-01 0.0000000000000000e+00  -1.2031354066714768e-02 -4.4171251901260885e-03 0.0000000000000000e+00  -2.1976328481430490e-03 -2.9068442163815082e-03 0.0000000000000000e+00  2.8905355777062125e-04 -9.9382826206575754e-04 0.0000000000000000e+00  -3.3046056297859873e-02 -1.6641709749899475e-01 0.0000000000000000e+00  -2.0574195523597339e-02 -4.2404751013295265e-02 0.0000000000000000e+00  -4.3900124736521537e-02 -5.3857775787378083e-02 0.0000000000000000e+00  -6.9817410049490214e-02 -1.0257806570592484e-01 0.0000000000000000e+00  -2.0085428996968382e-02 -1.7601764122889715e-02 0.0000000000000000e+00  -6.6789574354478298e-02 -5.4830940144242654e-02 0.0000000000000000e+00  -6.1689100792032693e-02 6.2593637825228941e-03 0.0000000000000000e+00  -6.4499344986474902e-02 -8.3335257611670804e-03 0.0000000000000000e+00  -7.1392008521219241e-02 -1.6817145335481687e-01 0.0000000000000000e+00  4.4543853717410873e-04 3.8477463210510930e-04 0.0000000000000000e+00  -3.1636531832599311e-02 8.4970604928293666e-03 0.0000000000000000e+00  -6.7797033051833063e-03 -5.9490227082951925e-03 0.0000000000000000e+00  -1.0670807736035964e-02 3.4312632726804003e-03 0.0000000000000000e+00  -1.8494725992074016e-03 9.9526633850550343e-04 0.0000000000000000e+00  -3.1038909902093448e-02 -8.4160087121525375e-03 0.0000000000000000e+00  -4.3809017410425657e-02 -1.8901682950933366e-02 0.0000000000000000e+00  -4.6331124273245532e-02 8.9321148254256754e-03 0.0000000000000000e+00  -7.0833114788851043e-02 -2.3014369869914633e-02 0.0000000000000000e+00  -1.7793778919394359e-02 7.1023017185175589e-03 0.0000000000000000e+00  -3.3595397336062642e-02 -8.9404348325412802e-02 0.0000000000000000e+00  -1.8689785130077529e-02 -8.8869104406866413e-03 0.0000000000000000e+00  -7.6127460100431116e-02 -7.4692020249309987e-02 0.0000000000000000e+00  -1.0145679805793962e-02 -1.2294303198590217e-01 0.0000000000000000e+00  -3.2225819948084308e-02 -1.3389055563669636e-01 0.0000000000000000e+00  -3.9056884789637002e-02 -3.5038766416225109e-02 0.0000000000000000e+00  -3.3488932912120961e-04 -2.2254188131089299e-03 0.0000000000000000e+00  -7.3365338350918519e-02 -1.2652627163710822e-01 0.0000000000000000e+00  -3.3258383293869074e-04 1.6677708845462755e-03 0.0000000000000000e+00  -2.8784968444738772e-04 -1.5200148418328780e-03 0.0000000000000000e+00  -5.7198070440163638e-03 -1.6910633371438938e-01 0.0000000000000000e+00  0.0000000000000000e+00 0.0000000000000000e+00 0.0000000000000000e+00  0.0000000000000000e+00 0.0000000000000000e+00 0.0000000000000000e+00  -7.5794780686417568e-02 -1.9141370082017881e-01 0.0000000000000000e+00  -3.0437089306119183e-02 -1.9401153534313334e-01 0.0000000000000000e+00  -8.7333621675695257e-03 -1.1138865120776281e-02 0.0000000000000000e+00  -2.3458595503816106e-03 -5.7038717650370703e-03 0.0000000000000000e+00  -1.4759913456109644e-02 -8.0552675016600253e-02 0.0000000000000000e+00  -7.9312782418195713e-02 1.3676531191068436e-02 0.0000000000000000e+00  -4.1913076619367069e-03 3.4105590941402044e-03 0.0000000000000000e+00  -3.8729167956194070e-02 -7.1091817205586827e-02 0.0000000000000000e+00  -3.6276627475379290e-02 5.5754153694811265e-04 0.0000000000000000e+00  -7.5316381306990143e-02 -1.4738782490458333e-01 0.0000000000000000e+00  -5.7240752850561967e-02 -2.0208606669041271e-02 0.0000000000000000e+00  -8.8202480556287557e-02 -4.7406599047269890e-02 0.0000000000000000e+00  -7.2617533922247568e-02 -4.0093819511130363e-02 0.0000000000000000e+00  -1.5399950353191208e-02 3.6739017991941622e-04 0.0000000000000000e+00  4.8127367819213651e-04 -2.2721870252061493e-04 0.0000000000000000e+00  -5.2685232182291257e-02 -1.6297377358282858e-01 0.0000000000000000e+00  -6.9877964412498744e-02 2.2954998404872324e-02 0.0000000000000000e+00  -8.0356680787257426e-02 -4.2619995306144411e-03 0.0000000000000000e+00  -9.5277269345622733e-03 9.4813394256261334e-03 0.0000000000000000e+00  -7.0135086528205784e-02 -2.7019721502419714e-04 0.0000000000000000e+00  -5.5486107112805917e-02 -1.2350956169901953e-01 0.0000000000000000e+00  -1.0771840533441029e-02 -8.8081456623671627e-03 0.0000000000000000e+00  -6.9989312159806846e-03 3.5567432232979628e-03 0.0000000000000000e+00  -2.7057189867600154e-02 -1.1743370739244585e-01 0.0000000000000000e+00  -9.8364262410572625e-02 -1.7426975699359440e-01 0.0000000000000000e+00  2.8759578813168839e-05 6.8503450371255816e-04 0.0000000000000000e+00  -3.2166155962736878e-02 -4.7855620251212566e-02 0.0000000000000000e+00  -8.7234310856414594e-03 -9.5254993028513182e-04 0.0000000000000000e+00  -4.8126026222741668e-02 -9.4539334557598956e-02 0.0000000000000000e+00  -2.2750381941864434e-02 -1.4628604206487580e-02 0.0000000000000000e+00  -2.3864672319216136e-02 6.6725431129654482e-03 0.0000000000000000e+00  -6.4989850074021985e-02 1.4670715263093631e-02 0.0000000000000000e+00  -9.5459001254056611e-02 -1.0635029006945132e-01 0.0000000000000000e+00  -9.7586820810614955e-02 -1.3975565671776174e-01 0.0000000000000000e+00  -7.5328034150589176e-04 2.8501248631319516e-03 0.0000000000000000e+00  -9.2278813059324866e-02 -7.5313251782383503e-02 0.0000000000000000e+00  -1.8794712368791298e-02 1.3887433699547992e-02 0.0000000000000000e+00  -5.0416077724783112e-02 2.1906258877480218e-02 0.0000000000000000e+00  -3.2514788485360692e-02 1.8544008527294428e-02 0.0000000000000000e+00  -8.3694245001872003e-02 -2.3769845646655213e-02 0.0000000000000000e+00  -3.7486757700967320e-03 5.7967802348980121e-03 0.0000000000000000e+00  -5.0641384716953848e-02 -1.1967283235896126e-02 0.0000000000000000e+00  -4.0193102231962541e-02 -1.0129486040741018e-02 0.0000000000000000e+00  -7.7591862442541134e-04 -1.5802781172895824e-03 0.0000000000000000e+00  -4.1499156624768968e-03 -5.4972982095860623e-03 0.0000000000000000e+00  -4.1191276311100386e-03 -2.7024719796809251e-03 0.0000000000000000e+00  -6.3102551920868402e-02 -6.8228256144040086e-02 0.0000000000000000e+00  -5.5421638628071722e-02 1.2543388404048599e-02 0.0000000000000000e+00  -1.6214036173547268e-02 -1.2377549949469591e-02 0.0000000000000000e+00  -5.5573005780002335e-02 -4.6412793801001835e-02 0.0000000000000000e+00  -1.4592481047591382e-03 2.5806012844261498e-03 0.0000000000000000e+00  -8.1871512825959600e-02 -1.1322087285550819e-01 0.0000000000000000e+00  -1.9217871362635242e-02 -1.5679561524403846e-01 0.0000000000000000e+00  -1.3102811652715012e-04 -2.0279645382564261e-03 0.0000000000000000e+00  -4.0775158079208160e-02 -1.5040713722336019e-01 0.0000000000000000e+00  -4.2374662013353270e-02 -1.8067575919527562e-01 0.0000000000000000e+00  2.5152314278764398e-04 -9.8228859911956255e-04 0.0000000000000000e+00  -2.0437663988722519e-02 -1.7923510442664187e-01 0.0000000000000000e+00  5.0744941221415945e-05 -5.8971182640705870e-04 0.0000000000000000e+00  -7.1949375676171212e-02 9.2252225475068089e-03 0.0000000000000000e+00  -6.7284062262616004e-02 -8.6539207058601811e-02 0.0000000000000000e+00  -3.4978595104393523e-02 -2.3904783520548888e-02 0.0000000000000000e+00  -2.4024841028113871e-02 -8.1747243791538363e-03 0.0000000000000000e+00  -5.2457986212737548e-02 3.1123692694559222e-03 0.0000000000000000e+00  -2.4655044888492912e-03 -4.8546386513321936e-03 0.0000000000000000e+00  -2.8740868077956203e-02 1.8476446923573751e-03 0.0000000000000000e+00  -7.7797827886515930e-02 -5.1271371059450850e-02 0.0000000000000000e+00  -5.6349447881051923e-02 -1.0602891653350111e-01 0.0000000000000000e+00  -8.2863409637141394e-02 -9.7976181709544280e-02 0.0000000000000000e+00  -1.2255107396365779e-03 -3.7978235353086599e-03 0.0000000000000000e+00  -3.0684874176831911e-02 -6.1189226651214304e-02 0.0000000000000000e+00  -3.1303013971470221e-02 -1.0336394706134015e-01 0.0000000000000000e+00  -2.8410075094966260e-02 -1.5119752276099758e-02 0.0000000000000000e+00  -5.4730174371196774e-02 -5.8697106681337090e-02 0.0000000000000000e+00  -5.0323391326721742e-02 -2.6368983929680283e-02 0.0000000000000000e+00  -2.4698978967115140e-03 -9.5966133476311057e-04 0.0000000000000000e+00  -6.0036152171935621e-02 -1.2026406811963906e-03 0.0000000000000000e+00  2.4533776810772232e-04 5.8288504588255958e-04 0.0000000000000000e+00  2.1535279378910368e-04 1.1064776120303704e-03 0.0000000000000000e+00  0.0000000000000000e+00 0.0000000000000000e+00 0.0000000000000000e+00  -8.3684292464995910e-02 -1.6008427888953730e-01 0.0000000000000000e+00  -5.9147558116632436e-02 -1.7733274075787217e-01 0.0000000000000000e+00  0.0000000000000000e+00 0.0000000000000000e+00 0.0000000000000000e+00  -7.3420538159598744e-02 -7.7186823149199332e-03 0.0000000000000000e+00  -3.4722495410852584e-03 9.4091659537386574e-04 0.0000000000000000e+00  -8.0492465475702100e-04 -7.5574237255441481e-05 0.0000000000000000e+00  -1.0976116849737970e-02 7.3918777295453606e-03 0.0000000000000000e+00  -8.8023636085541347e-03 -4.5759137017249299e-03 0.0000000000000000e+00  -6.6682090766650498e-03 -9.6733045809788056e-03 0.0000000000000000e+00  -7.9119512548085733e-02 -6.3057716589870888e-02 0.0000000000000000e+00  -2.6408673225786591e-02 -7.3452284496729747e-02 0.0000000000000000e+00  -2.2414277135304656e-02 -3.3242029443139857e-02 0.0000000000000000e+00  2.4593543797909204e-04 4.0051967807390768e-04 0.0000000000000000e+00  -8.3357106238517331e-02 -1.7788826464036980e-01 0.0000000000000000e+00  -1.5955941280119675e-02 -4.4126399049313047e-03 0.0000000000000000e+00  -2.7477810864364103e-02 1.2039741809445215e-02 0.0000000000000000e+00  -3.9212816920767987e-02 1.2444510200681946e-02 0.0000000000000000e+00  -6.4430392520882521e-02 -1.5571267832019764e-01 0.0000000000000000e+00  -7.3964417188449580e-02 -1.5572773612458759e-02 0.0000000000000000e+00  -8.3771985376061203e-02 -1.3627913422478544e-01 0.0000000000000000e+00  -6.5842311438105317e-02 -1.1511750008951270e-01 0.0000000000000000e+00  -4.5858552269257141e-02 -4.2670580569195919e-02 0.0000000000000000e+00  -3.5824214657726818e-02 -1.5922340339134779e-02 0.0000000000000000e+00  -1.3586907297705238e-02 -8.3441335154997107e-03 0.0000000000000000e+00  -6.2609139280478919e-03 -3.0666859897710706e-03 0.0000000000000000e+00  -4.4096039971851207e-02 2.3578995330021013e-03 0.0000000000000000e+00  -1.1713874559201745e-02 3.5576731999295515e-05 0.0000000000000000e+00  -2.1295094200721332e-02 1.1313379469396149e-02 0.0000000000000000e+00  3.4999185118379572e-04 -3.6878997152272122e-04 0.0000000000000000e+00  -5.6187123754029449e-02 -7.0174291773619111e-03 0.0000000000000000e+00  -6.4663096823448868e-02 -1.6037387764580215e-02 0.0000000000000000e+00  4.1185995140009509e-04 -1.6091617553920732e-04 0.0000000000000000e+00  -7.8710365885454256e-02 -8.6300245276904358e-02 0.0000000000000000e+00  -4.5821112779408819e-02 -1.3314428685552324e-01 0.0000000000000000e+00  -3.8981545720736817e-02 6.3236355565563828e-03 0.0000000000000000e+00  -6.7316529887328835e-02 -3.0991047871999251e-02 0.0000000000000000e+00  -7.6638361434679531e-02 -3.0747718236162642e-02 0.0000000000000000e+00  -9.1353564969519074e-03 -1.3412268404475200e-01 0.0000000000000000e+00  -1.4506010372249750e-02 8.5142384615021233e-03 0.0000000000000000e+00  -3.8859091860718266e-02 -1.2264835372827995e-01 0.0000000000000000e+00  -2.1839530839093860e-02 -1.4310373117479197e-01 0.0000000000000000e+00  -1.9583280714728476e-02 3.4820641079672389e-03 0.0000000000000000e+00  -1.4060020952465006e-02 4.5427597631248649e-03 0.0000000000000000e+00  -2.6038827655622827e-02 -3.1231202790464579e-03 0.0000000000000000e+00  -7.2341287032890209e-02 1.6160989448233191e-02 0.0000000000000000e+00  -2.0534476604592872e-02 -4.7922613431351435e-03 0.0000000000000000e+00  -6.4904848612343052e-02 -4.4767740727235668e-02 0.0000000000000000e+00  -4.8924841539365931e-02 1.5071023396532457e-02 0.0000000000000000e+00  -1.3500075269662286e-02 -9.0779465994702560e-02 0.0000000000000000e+00  -2.3312443783502692e-02 -9.5607070579784723e-02 0.0000000000000000e+00  -4.3798660116018358e-02 -8.4022643828634710e-02 0.0000000000000000e+00  -2.5711103759665458e-03 2.7225545088352216e-03 0.0000000000000000e+00  -7.3903647991719421e-03 6.4084229362873684e-03 0.0000000000000000e+00  -3.0086048489692471e-02 -3.7260151202219378e-02 0.0000000000000000e+00  -2.2775864843228383e-04 6.7989722403931656e-04 0.0000000000000000e+00  -6.3342187662850116e-02 -1.3301975313636438e-01 0.0000000000000000e+00  -2.4322987780894818e-02 -8.4365414928293386e-02 0.0000000000000000e+00  -8.8609335463602501e-02 -1.4824161402813282e-01 0.0000000000000000e+00  -3.9790970214254956e-02 -4.1435442445602192e-03 0.0000000000000000e+00  -1.1188710465330074e-02 -1.1198826425378468e-01 0.0000000000000000e+00  -6.0931697840311300e-02 -9.5515310325937602e-02 0.0000000000000000e+00  -2.4949518549734913e-03 4.0165389132014676e-03 0.0000000000000000e+00  -4.9667977494705216e-02 -6.8750518753020948e-02 0.0000000000000000e+00  4.0123706352661667e-04 5.1302843389730447e-05 0.0000000000000000e+00  -5.0165135878009188e-04 -2.8473713361501811e-03 0.0000000000000000e+00  7.0735698269270455e-05 -1.6364375098082227e-03 0.0000000000000000e+00  -1.7469563405984092e-04 1.8668164066939174e-03 0.0000000000000000e+00  -2.0507832683519901e-02 -1.2817867359252824e-01 0.0000000000000000e+00  -1.4740382981895601e-03 -3.2838009768766737e-03 0.0000000000000000e+00  -7.1656043093294881e-03 -8.3705372499724272e-03 0.0000000000000000e+00  -4.9795285758408338e-02 -3.4635112166911682e-02 0.0000000000000000e+00  -4.2348148112236618e-02 -2.7024386000221098e-02 0.0000000000000000e+00  -1.2628984242859709e-03 3.5156537582622790e-03 0.0000000000000000e+00  -7.0532942316495012e-02 -1.8057154665842765e-01 0.0000000000000000e+00  -8.5362824110491384e-02 -1.2457061040919243e-01 0.0000000000000000e+00  -1.6198109253266378e-04 -1.3289187839700739e-03 0.0000000000000000e+00  -1.9471231203368911e-02 -1.3975515175859056e-02 0.0000000000000000e+00  1.9225654191763440e-05 -1.2887187135938521e-03 0.0000000000000000e+00  -3.4790701828826603e-03 -6.9614385294321166e-03 0.0000000000000000e+00  -2.1071342076510897e-04 -7.1130198279284798e-04 0.0000000000000000e+00  -4.8559311246932268e-04 -2.4253812359647134e-03 0.0000000000000000e+00  -7.0672759922363838e-03 -1.5710589674676165e-01 0.0000000000000000e+00  -1.8990592707260768e-02 -5.1585993032425330e-02 0.0000000000000000e+00  -1.6814247777695083e-02 -1.5873120889398074e-02 0.0000000000000000e+00  -3.7300327693296225e-03 -1.8204574445053656e-01 0.0000000000000000e+00  -4.2143390809115548e-02 -1.9278683134356170e-01 0.0000000000000000e+00  0.0000000000000000e+00 0.0000000000000000e+00 0.0000000000000000e+00  -8.7031454832304608e-02 -1.9136154765884703e-01 0.0000000000000000e+00  -6.4628070324134881e-02 -1.9162000912599952e-01 0.0000000000000000e+00  0.0000000000000000e+00 0.0000000000000000e+00 0.0000000000000000e+00  -2.3368687052354190e-02 -1.9584218187315303e-02 0.0000000000000000e+00  -1.7689884899766802e-02 -1.9612858406916964e-01 0.0000000000000000e+00  -1.6099422286029640e-02 -7.0613216825625935e-02 0.0000000000000000e+00  -1.4748306608012907e-03 -4.5356885393522707e-03 0.0000000000000000e+00  -1.1100575289780734e-02 -1.2673426138038495e-02 0.0000000000000000e+00  -9.5097692141701243e-04 1.2346039464277044e-03 0.0000000000000000e+00  -2.0939628217815462e-02 -1.0626004693966296e-01 0.0000000000000000e+00  -3.2679891825501600e-02 1.3529666798357378e-02 0.0000000000000000e+00  -5.7635114072505947e-02 -1.3828067494454270e-02 0.0000000000000000e+00  -8.3017875800068183e-03 1.7847340778995374e-03 0.0000000000000000e+00  -3.1474424706921189e-02 -3.1443283502873955e-03 0.0000000000000000e+00  -1.8257937870874322e-02 -1.6207895926327492e-03 0.0000000000000000e+00  -4.9443642155461605e-03 2.0073564871649799e-03 0.0000000000000000e+00  -4.9025497895038598e-03 6.6379101375719785e-03 0.0000000000000000e+00  -5.4131751511561103e-03 5.4006417734201268e-03 0.0000000000000000e+00  1.7790101031796061e-06 1.1408283045859610e-03 0.0000000000000000e+00  -5.4043233918861615e-03 -7.4801735325143422e-03 0.0000000000000000e+00  -1.4214308021381762e-03 -1.0911709397575114e-03 0.0000000000000000e+00  -2.9534866444179304e-02 -1.5102774676376016e-01 0.0000000000000000e+00  -9.3373696585760980e-03 -9.7519952023401406e-03 0.0000000000000000e+00  -8.0211113935556702e-02 -4.3802252162043281e-02 0.0000000000000000e+00  -3.3525972139096173e-02 4.3639151129325586e-03 0.0000000000000000e+00  -1.3311410738665678e-02 -1.1108145928920940e-02 0.0000000000000000e+00  -3.9328115213513237e-03 -7.8947792319307181e-04 0.0000000000000000e+00  -3.7128491552709652e-03 -6.2944897900178353e-03 0.0000000000000000e+00  -5.3406627237367894e-02 -2.0414448269484402e-03 0.0000000000000000e+00  -6.0595088570982357e-02 -2.6726887003925601e-02 0.0000000000000000e+00  -3.6634429966663374e-03 4.5302441299051631e-03 0.0000000000000000e+00  -3.3262753219777230e-02 -7.9523930017533606e-02 0.0000000000000000e+00  -8.4541663246036292e-02 -7.9421852891771436e-02 0.0000000000000000e+00  -7.1490089862337722e-02 -6.6483207965673960e-02 0.0000000000000000e+00  -6.7338148652200572e-02 -7.6786684834313390e-02 0.0000000000000000e+00  -4.3318627217694902e-02 -6.2825649289758270e-02 0.0000000000000000e+00  2.3523539822245705e-04 -6.2081801065718128e-04 0.0000000000000000e+00  -1.7588209562078939e-02 -1.6788254583509990e-01 0.0000000000000000e+00  -3.1607984126572612e-02 -1.8218941263212174e-01 0.0000000000000000e+00  -7.4013453089752435e-02 -9.4119766299215396e-02 0.00