<?xml version="1.0"?>
<VTKFile type="UnstructuredGrid"  version="0.1"  >
<UnstructuredGrid>
<Piece  NumberOfPoints="1067" NumberOfCells="1963">
<Points>
<DataArray  type="Float64"  NumberOfComponents="3"  format="ascii">1 0.3333333333333333 0  0.3333333333333333 0.3333333333333333 0  0.3333333333333333 1 0  0 1 0  0 0 0  1 0 0  0 0.5 0  0.5 0 0  0.3333333333333333 0.6666666666666666 0  0.6666666666666666 0.3333333333333333 0  0 0.75 0  0.25 0 0  0 0.25 0  0.75 0 0  0.1666666666666667 1 0  1 0.1666666666666667 0  0.3333333333333333 0.8333333333333333 0  0.375 0.1458333333333333 0  0.1888706140350877 0.2028508771929824 0  0.3333333333333333 0.5 0  0.8333333333333333 0.3333333333333333 0  0.1524989287154668 0.388331190764267 0  0.5 0.3333333333333333 0  0.5833333333333333 0.1666666666666667 0  0.1458333333333333 0.625 0  0.1583333333333333 0.825 0  0.825 0.1583333333333333 0  0.125 0 0  0 0.125 0  0 0.625 0  0 0.375 0  0.375 0 0  0.625 0 0  0 0.875 0  0.875 0 0  0.7057909604519773 0.2096045197740113 0  0.2033782928772914 0.5081924393159372 0  0.2229753521126761 0.720569248826291 0  0.2420454545454545 0.9087121212121212 0  0.9087121212121212 0.2420454545454545 0  0.4166666666666666 0.3333333333333333 0  0.4732142857142856 0.2157738095238095 0  0.6750921898496802 0.1010647141290868 0  0.3333333333333333 0.4166666666666666 0  0.4768915210573477 0.1066808275729647 0  0.1147181409008132 0.1147181409008132 0  0.219827215200512 0.1015435406570343 0  0.9154835390946502 0.0998456790123457 0  0.09984567901234567 0.9154835390946502 0  0.08229580025091013 0.3125 0  0.2490424622725705 0.6032672531067658 0  0.1006393784575282 0.5301568362439949 0  0.1169995413985014 0.727192736995927 0  0.2263966689731509 0.3065158354789739 0  0.2966728635224111 0.2224517248151044 0  0.09043699241737507 0.2104089341806989 0  0.3125 0.07291666666666667 0  0.07292806175162128 0.4396297689259239 0  0.6224176247481331 0.2512911876259334 0  0.239864329746879 0.4219752441630512 0  0.5625 0.06938154200389178 0  0.75 0.3333333333333333 0  0.7927489005587869 0.2475675126718038 0  0.3859676904520978 0.2461869149974528 0  0.2462310606060606 0.8208143939393939 0  0.7653408376112384 0.08966311200871162 0  0.06732456140350877 0.8125 0  0.3333333333333333 0.9166666666666666 0  0.9166666666666666 0.3333333333333333 0  0.08333333333333333 1 0  0.25 1 0  1 0.08333333333333333 0  1 0.25 0  0.3333333333333333 0.5833333333333333 0  0.3333333333333333 0.75 0  0.5833333333333333 0.3333333333333333 0  0.0625 0 0  0.07291666666666666 0.6595905945441375 0  0.5475816768684841 0.2345166678984481 0  0.1528924117958546 0.2744993329916797 0  0.8411372533802133 0.08406325820630503 0  0.2996637983602427 0.1471631728340777 0  0.4375 0 0  0.4054493459461466 0.07291666666666667 0  0.1440801191314338 0.4626342544081788 0  0.1716727459783015 0.9273685933408156 0  0.8968270669659558 0.1702183875794987 0  0 0.0625 0  0.1875 0 0  0 0.5625 0  0.1617554577346029 0.06411357198912754 0  0.7547177919703033 0.1591425659812248 0  0.2702765804490694 0.5345649711785327 0  0.08689030765479462 0.5948977651265637 0  0.7310390069598418 0.2703457257914622 0  0.9375 0 0  0 0.9375 0  0.4447477682500287 0.2744608764698752 0  0.1606803622837728 0.5597358803146593 0  0.6438968569972591 0.1900329824943801 0  0.2840816202988848 0.375 0  0.08880121935117018 0.3768893831475786 0  0.05501898908686768 0.09374999999999997 0  0.6875 0 0  0.8125 0 0  0 0.8125 0  0.5625 0 0  0 0.4375 0  0 0.1875 0  0 0.3125 0  0.3125 0 0  0 0.6875 0  0.2481953317884629 0.1828222069759379 0  0.237975717832275 0.2447888085739308 0  0.200176069352744 0.7786785170136837 0  0.2659174273276675 0.668564588774316 0  0.2014269398862459 0.6590442473968234 0  0.5361902489011917 0.1258889624633807 0  0.0675070920211801 0.1536645476496686 0  0.2888145418135863 0.4583333333333333 0  0.4389152459630969 0.1600092138755295 0  0.06106116270695027 0.7517361165768591 0  0.7150766468061498 0.05467962723819628 0  0.875 0.290973532000503 0  0.2909735320005029 0.875 0  0.8526144869835004 0.2144309675619541 0  0.9576401986671697 0.2083333333333333 0  0.2041847451790633 0.8628607093663911 0  0.9510163659495721 0.2843496992829054 0  0.2916666666666666 0.9583333333333333 0  0.09375 0.04966715310055026 0  0.6119161044147912 0.109672485429145 0  0.3311579498979588 0.2725512966323962 0  0.226425945410618 0.3650275865962277 0  0.1369397361142181 0.1712827978808029 0  0.2809701888780682 0.724725903187628 0  0.1379758826391655 0.3313643799237706 0  0.4586557180124523 0.05280132961106423 0  0.6887598321031895 0.1558102714243457 0  0.65625 0.04745742439875293 0  0.2861303319373879 0.7809153736790874 0  0.5038734826777268 0.2743345010629015 0  0.6773935352591479 0.2570263390181576 0  0.2798361614180057 0.3200395848847201 0  0.4949315857333921 0.1639857595809101 0  0.3380360928888468 0.186391247091096 0  0.1688076847263596 0.7050048004434435 0  0.1694932372870325 0.1258468186031997 0  0.1076591942820013 0.8563894303660385 0  0.05624279564308041 0.8796546858602379 0  0.125 1 0  0.8864787227825769 0.05347591410888117 0  0.9476420027807178 0.1460305506667086 0  0.2083333333333333 1 0  0.213464560872628 0.04765155683629457 0  0.1244815016517538 0.6741396688406132 0  0.1465842514222262 0.7723276599236152 0  0.04547383511106311 0.53125 0  0.2148758403578392 0.5611737930029497 0  0.3333333333333333 0.625 0  0.5120285103269483 0.05200579557286625 0  0.5557882597572179 0.2874233127303565 0  0.375 0.3333333333333333 0  0.05524798880942433 0.9506415704763231 0  0.9506415704763231 0.05524798880942434 0  0.1972666160395715 0.4547772398129902 0  0.04497829106973091 0.3487936014085283 0  0.05790539181627354 0.2591848609776979 0  0.8711365685983223 0.1257482348431603 0  0.2656491149947962 0.04983052048065093 0  0.8005870837483613 0.050967748851606 0  0.7230963420004116 0.1181590083901302 0  0.4218965800639618 0.2089072825214489 0  0.2811906938680201 0.2700269437372825 0  0.2495323619810901 0.4891505615133008 0  0.1991280016626992 0.6088690683261796 0  0.1409277024673874 0.2232207459103052 0  0.1468243620559488 0.512134886024921 0  0.03740774492937259 0.40625 0  0.2155422481162296 0.950793421692112 0  0.212106654032322 0.1498280878297097 0  0.2713550318729565 0.1040361211330102 0  0.1546665765869578 0.8783505049416189 0  0.6100874230054322 0.06146588433646355 0  0.7902906254281675 0.1962338398758094 0  0.1067887845369411 0.2582214394389009 0  0.3589746729730733 0.09632528030879431 0  0.3550972168408855 0.0461845191969495 0  0.7916666666666666 0.3333333333333333 0  0.04616482742057831 0.4815335788736005 0  0.7513486987797579 0.2238243946198433 0  0.8259111874430654 0.2843602986749449 0  0.1145135976767541 0.4167726763769093 0  0.09410347318951218 0.4826526468125477 0  0.1812616873741859 0.3506638009287041 0  0.04554546899361216 0.04637072539374764 0  0.197422420807303 0.4019311843643738 0  0.4299858672887971 0.1134643652332322 0  0.0461436106684496 0.1953024172515056 0  0.625 0.3333333333333333 0  0.6460078293604408 0.2915217509574419 0  0.6015642854289754 0.209584508987618 0  0.07463129964138498 0.7066466298758631 0  0.03783322102651011 0.59375 0  0.3958333333333333 0.2916919124978751 0  0.114022055899838 0.8100633326221395 0  0.7895154684417436 0.1289111178903929 0  0.600799783427331 0.2916355696893704 0  0.84375 0.03418030363172077 0  0.1917755503464407 0.2491670256216106 0  0.7083333333333333 0.3333333333333333 0  0.6478078564061464 0.1369553479973995 0  0.03144377545163998 0.71875 0  0.5384938547867213 0.1863839274804893 0  0.1306476667572267 0.952317581765362 0  0.2892367660002514 0.83086877593361 0  0.2481080288456043 0.865149100485581 0  0.03366228070175439 0.8414367919466372 0  0.7708333333333333 0.2927142374723782 0  0.2495866311601397 0.7559396780718943 0  0.2937576828079838 0.6041666666666666 0  0.3821593549415586 0.1894814149447491 0  0.3445642076128221 0.2302669507453929 0  0 0.78125 0  0.9599981637499104 0.1031385892720535 0  0.7574153542120744 0.04322853446886453 0  0.204050893649534 0.8206805424098645 0  0.2913165163454587 0.4163901636011871 0  0.2916638078313682 0.9166638078313682 0  0.3333333333333333 0.7083333333333333 0  0.3333333333333333 0.9583333333333333 0  0.3333333333333333 0.875 0  0.875 0.3333333333333333 0  0.4583333333333333 0.3333333333333333 0  0.3333333333333333 0.4583333333333333 0  0.9583333333333333 0.3333333333333333 0  1 0.2083333333333333 0  0.04166666666666666 1 0  1 0.04166666666666666 0  1 0.125 0  0.2916666666666666 1 0  0.3333333333333333 0.375 0  1 0.2916666666666666 0  0.5416666666666666 0.3333333333333333 0  0.3333333333333333 0.7916666666666666 0  0.3333333333333333 0.5416666666666666 0  0.1016069174729423 0.7681284775865405 0  0.6875 0.2973545198413665 0  0.04114790012545506 0.3075231959253509 0  0.2587887510102507 0.1431391960771147 0  0.1193245108135817 0.5679554230146414 0  0.1825380957195719 0.3068227309779981 0  0.1661760896432419 0.4282623189518068 0  0.1070276360235576 0.637347074818211 0  0 0.65625 0  0.03997879087021122 0.6348742039918381 0  0 0.90625 0  0.2979556257795157 0.6441983605310423 0  0.1769907023833003 0.7450354670868354 0  0.854811597523172 0.2553331016660396 0  0.2978902581390474 0.5640107983913386 0  0.422190360774741 0.03677291521413537 0  0.11934455203393 0.2960881760558284 0  0.288741907148047 0.4986855138502997 0  0.1618938936523733 0.6611871845610839 0  0.2987993331180339 0.6898492748391704 0  0.1759603428125616 0.1655905128188335 0  0.3370542346566173 0.1307683920597218 0  0.03886648645263804 0.6798368859108999 0  0.582137712504897 0.2556718560956591 0  0.5811816160381472 0.03469077100194589 0  0.5279722974875536 0.08768410328535482 0  0.5719976896208205 0.108182244938876 0  0.5126558232993131 0.216186636111048 0  0.2544607546659688 0.945918033212819 0  0.9136179827478804 0.2946597939900734 0  0.96132646065674 0.2469513160812137 0  0.6417305609928732 0.08267582195367543 0  0.8333983588276207 0.1212699393091796 0  0.8033911384781 0.08892182866041928 0  0.07360238009281882 0.5582453860506698 0  0 0.15625 0 
[...]
<PointData  Vectors="f_24"> 
<DataArray  type="Float64"  Name="f_24"  NumberOfComponents="3" format="ascii">-8.1201566338111111e-03 -4.9902541147726943e-02 0.0000000000000000e+00  -1.1238594508645713e-02 -6.8554769314660979e-03 0.0000000000000000e+00  0.0000000000000000e+00 0.0000000000000000e+00 0.0000000000000000e+00  0.0000000000000000e+00 0.0000000000000000e+00 0.0000000000000000e+00  -2.6751317363065175e-02 6.8989008364448798e-03 0.0000000000000000e+00  -3.0321662873224943e-02 -4.9046401872129157e-02 0.0000000000000000e+00  -6.4604385724738997e-03 4.2647842311649723e-03 0.0000000000000000e+00  -2.8938975077351672e-02 -1.6941826579610950e-02 0.0000000000000000e+00  -2.8310532924954706e-03 -3.0833668945882743e-03 0.0000000000000000e+00  -9.1218455897827469e-03 -2.7147547067801706e-02 0.0000000000000000e+00  -1.4790953546294256e-03 1.9093148573455672e-03 0.0000000000000000e+00  -2.7249345361225620e-02 -3.9819627812621395e-03 0.0000000000000000e+00  -1.5480675700656053e-02 6.3815815381067058e-03 0.0000000000000000e+00  -3.0068676869528747e-02 -3.2534680907779043e-02 0.0000000000000000e+00  0.0000000000000000e+00 0.0000000000000000e+00 0.0000000000000000e+00  -1.9474999271735478e-02 -4.9136496590193486e-02 0.0000000000000000e+00  -7.5732317858660217e-04 -1.3210894700175957e-03 0.0000000000000000e+00  -2.0492274374243554e-02 -9.7120828998657031e-03 0.0000000000000000e+00  -1.7405966673458326e-02 -1.0999441204934241e-03 0.0000000000000000e+00  -6.5163870824171653e-03 -4.8390495331761714e-03 0.0000000000000000e+00  -8.5988396267324962e-03 -3.8025517719654192e-02 0.0000000000000000e+00  -9.6203833497803155e-03 1.3268225221336926e-04 0.0000000000000000e+00  -9.9117003935909557e-03 -1.6899854804052428e-02 0.0000000000000000e+00  -1.9473735427235815e-02 -2.1755458080013081e-02 0.0000000000000000e+00  -3.1859949888307765e-03 1.7767309719519329e-04 0.0000000000000000e+00  -4.1476444153084067e-04 -2.2547071313402909e-05 0.0000000000000000e+00  -2.0023321693015253e-02 -3.7409992919011509e-02 0.0000000000000000e+00  -2.6802753209709367e-02 1.4559553662748983e-03 0.0000000000000000e+00  -2.1121803024917288e-02 6.8476588518150945e-03 0.0000000000000000e+00  -3.4925328327068367e-03 3.0836908478447094e-03 0.0000000000000000e+00  -1.0458640297385129e-02 5.4343825241643497e-03 0.0000000000000000e+00  -2.8080759648693540e-02 -1.0032335964015867e-02 0.0000000000000000e+00  -2.9611412504026602e-02 -2.4517333443204142e-02 0.0000000000000000e+00  -4.1600935671035262e-04 7.5823103731151667e-04 0.0000000000000000e+00  -3.0294381070666832e-02 -4.0796742261635786e-02 0.0000000000000000e+00  -1.6801818475149773e-02 -2.9539432405403312e-02 0.0000000000000000e+00  -5.9304916861516975e-03 -1.3062497961359690e-03 0.0000000000000000e+00  -1.6229249341168336e-03 -9.5165317977647648e-04 0.0000000000000000e+00  -4.8755582632099301e-05 -2.2873060306354080e-04 0.0000000000000000e+00  -1.4612667520083583e-02 -4.3082559301273304e-02 0.0000000000000000e+00  -1.0410527901779080e-02 -1.2034020861681403e-02 0.0000000000000000e+00  -1.6756273206878971e-02 -1.5135475096803333e-02 0.0000000000000000e+00  -2.3498204927147080e-02 -2.7572084810172034e-02 0.0000000000000000e+00  -8.9128084454855785e-03 -5.7091477490347695e-03 0.0000000000000000e+00  -2.2797176564468832e-02 -1.5398394670093558e-02 0.0000000000000000e+00  -2.1573966785787480e-02 1.9238392874365009e-03 0.0000000000000000e+00  -2.2343587349728519e-02 -2.4762582274649048e-03 0.0000000000000000e+00  -2.3807006894610884e-02 -4.3479630849199084e-02 0.0000000000000000e+00  -8.3801296644862696e-07 1.1779884157512976e-04 0.0000000000000000e+00  -1.2643968713456331e-02 2.7972412351517551e-03 0.0000000000000000e+00  -3.7378650932382781e-03 -1.9814891058989779e-03 0.0000000000000000e+00  -5.3839734064044407e-03 1.3911331744284126e-03 0.0000000000000000e+00  -1.4836913127763464e-03 5.2272226192318246e-04 0.0000000000000000e+00  -1.2647435611780980e-02 -2.5038301994004548e-03 0.0000000000000000e+00  -1.6508196784027280e-02 -5.6313353583345776e-03 0.0000000000000000e+00  -1.7096926576936341e-02 2.7975547708709719e-03 0.0000000000000000e+00  -2.4038926586172554e-02 -6.7311873794444052e-03 0.0000000000000000e+00  -8.0384835926701082e-03 2.5483013547444389e-03 0.0000000000000000e+00  -1.4359382826569688e-02 -2.4238357430545598e-02 0.0000000000000000e+00  -8.4684082251475674e-03 -2.7016427313800990e-03 0.0000000000000000e+00  -2.5162660464668835e-02 -2.0537380372347851e-02 0.0000000000000000e+00  -8.8307713607867957e-03 -3.2519581961652062e-02 0.0000000000000000e+00  -1.4309994356207377e-02 -3.5261978205105696e-02 0.0000000000000000e+00  -1.5302131903100367e-02 -1.0137608227142308e-02 0.0000000000000000e+00  -5.5283670765619961e-04 -7.2837889163588287e-04 0.0000000000000000e+00  -2.4340881221958665e-02 -3.3464664114436188e-02 0.0000000000000000e+00  -6.2150799318766968e-04 7.4426934222410614e-04 0.0000000000000000e+00  -2.7762709881033515e-04 -4.8301965670680282e-04 0.0000000000000000e+00  -8.3723246635279049e-03 -4.3686140387349630e-02 0.0000000000000000e+00  0.0000000000000000e+00 0.0000000000000000e+00 0.0000000000000000e+00  0.0000000000000000e+00 0.0000000000000000e+00 0.0000000000000000e+00  -2.4873893255460425e-02 -4.9051681950374328e-02 0.0000000000000000e+00  -1.4020015850528630e-02 -4.9397485602423019e-02 0.0000000000000000e+00  -4.4764620526051638e-03 -3.9666919487548573e-03 0.0000000000000000e+00  -1.5872593557724405e-03 -2.1982359821649490e-03 0.0000000000000000e+00  -9.4844990462758932e-03 -2.1930343845773474e-02 0.0000000000000000e+00  -2.6751780546924731e-02 4.1456785149848697e-03 0.0000000000000000e+00  -2.6189451155600031e-03 1.4583131292222971e-03 0.0000000000000000e+00  -1.5531643068834505e-02 -1.9592203447740111e-02 0.0000000000000000e+00  -1.4138595663129186e-02 2.6650938006325431e-04 0.0000000000000000e+00  -2.4783858505947252e-02 -3.8508374208539947e-02 0.0000000000000000e+00  -2.0269447643073018e-02 -5.9664757772140455e-03 0.0000000000000000e+00  -2.8530614208562788e-02 -1.3387025291175780e-02 0.0000000000000000e+00  -2.4410248576902629e-02 -1.1460966704112178e-02 0.0000000000000000e+00  -7.2135307784798068e-03 3.2479460936312706e-04 0.0000000000000000e+00  3.0398867626452541e-05 -2.9327357147912883e-05 0.0000000000000000e+00  -1.9280051889356321e-02 -4.2246856507238140e-02 0.0000000000000000e+00  -2.3967847179054459e-02 6.8983232828982487e-03 0.0000000000000000e+00  -2.6963809784812200e-02 -1.2245426966517215e-03 0.0000000000000000e+00  -4.8600276769154675e-03 3.6802788839007416e-03 0.0000000000000000e+00  -2.3999798659263404e-02 -5.0944451169846605e-05 0.0000000000000000e+00  -1.9949172802360280e-02 -3.2736788982019267e-02 0.0000000000000000e+00  -5.3844005516030550e-03 -2.9056952550526199e-03 0.0000000000000000e+00  -3.8699240105838110e-03 1.4761711192236994e-03 0.0000000000000000e+00  -1.2940621618914039e-02 -3.1213903343271208e-02 0.0000000000000000e+00  -3.0321397588447412e-02 -4.4937691076353210e-02 0.0000000000000000e+00  -1.6189033122370792e-04 2.4210492098795825e-04 0.0000000000000000e+00  -1.3585032640780799e-02 -1.3529889023786133e-02 0.0000000000000000e+00  -4.6042736947266736e-03 -1.3868569440702628e-04 0.0000000000000000e+00  -1.8051570860699088e-02 -2.5557387903751148e-02 0.0000000000000000e+00  -1.0001989411282532e-02 -4.4810337246044751e-03 0.0000000000000000e+00  -1.0140499321384737e-02 2.3129877977815820e-03 0.0000000000000000e+00  -2.2538009729350498e-02 4.4523398605630917e-03 0.0000000000000000e+00  -2.9868451957634851e-02 -2.8480734279333789e-02 0.0000000000000000e+00  -3.0212116144421736e-02 -3.6649401897472317e-02 0.0000000000000000e+00  -8.3889068319105442e-04 1.3226896819088399e-03 0.0000000000000000e+00  -2.9302503681460760e-02 -2.0666956937213772e-02 0.0000000000000000e+00  -8.3311127357653825e-03 4.8638173962105742e-03 0.0000000000000000e+00  -1.8266375630644750e-02 6.6824954350732900e-03 0.0000000000000000e+00  -1.2857730174988509e-02 5.9566120454878774e-03 0.0000000000000000e+00  -2.7640002198404224e-02 -6.9018482505731277e-03 0.0000000000000000e+00  -2.3713665880462620e-03 2.4978844036665812e-03 0.0000000000000000e+00  -1.8411454374570816e-02 -3.5776409187237286e-03 0.0000000000000000e+00  -1.5409295402510806e-02 -3.0389038717592680e-03 0.0000000000000000e+00  -8.6638566888299945e-04 -4.7133505464579784e-04 0.0000000000000000e+00  -2.5397460465168983e-03 -1.9100954230390386e-03 0.0000000000000000e+00  -2.5733989246937679e-03 -8.2821976161459782e-04 0.0000000000000000e+00  -2.1818571201211057e-02 -1.8884945477581242e-02 0.0000000000000000e+00  -1.9751778170249579e-02 3.8468734192431925e-03 0.0000000000000000e+00  -7.5003980926022637e-03 -3.9821882125750567e-03 0.0000000000000000e+00  -1.9823966340160832e-02 -1.3177918225229263e-02 0.0000000000000000e+00  -1.2666375709337275e-03 1.1490718733203177e-03 0.0000000000000000e+00  -2.6469302870092234e-02 -3.0197115418779358e-02 0.0000000000000000e+00  -1.1357615827392248e-02 -4.0794245383025542e-02 0.0000000000000000e+00  -3.1921015603970595e-04 -6.5436563497743040e-04 0.0000000000000000e+00  -1.6422352359682084e-02 -3.9263554972081352e-02 0.0000000000000000e+00  -1.6806487593169144e-02 -4.6401486601285465e-02 0.0000000000000000e+00  -1.8501617031374250e-04 -2.5873766316483092e-04 0.0000000000000000e+00  -1.1757112109647538e-02 -4.6069630262436018e-02 0.0000000000000000e+00  0.0000000000000000e+00 0.0000000000000000e+00 0.0000000000000000e+00  -2.4566301517780505e-02 2.8109469140457956e-03 0.0000000000000000e+00  -2.2878642753371689e-02 -2.3554126786953865e-02 0.0000000000000000e+00  -1.4056781683544023e-02 -7.1049055974583553e-03 0.0000000000000000e+00  -1.0363967375760584e-02 -2.4228575431182679e-03 0.0000000000000000e+00  -1.8902589805598266e-02 9.8622677416383090e-04 0.0000000000000000e+00  -1.7090004940531066e-03 -1.7402360064344199e-03 0.0000000000000000e+00  -1.1779344233581020e-02 7.2260708581434652e-04 0.0000000000000000e+00  -2.5723014412181652e-02 -1.4443121179168756e-02 0.0000000000000000e+00  -2.0139094646428803e-02 -2.8430118200190358e-02 0.0000000000000000e+00  -2.6773288719811241e-02 -2.6415756473977422e-02 0.0000000000000000e+00  -1.0443284652835293e-03 -1.3698416855046688e-03 0.0000000000000000e+00  -1.3351654137431290e-02 -1.7011604241708944e-02 0.0000000000000000e+00  -1.3887767004554932e-02 -2.7733692524719845e-02 0.0000000000000000e+00  -1.1966924893250639e-02 -4.5676531618549215e-03 0.0000000000000000e+00  -1.9627339421915101e-02 -1.6411043286156540e-02 0.0000000000000000e+00  -1.8355296799134332e-02 -7.7322333224700982e-03 0.0000000000000000e+00  -1.7906553992388318e-03 -2.0534700443189142e-04 0.0000000000000000e+00  -2.1088381369287867e-02 -3.3769631197049584e-04 0.0000000000000000e+00  -2.3150950436267366e-04 2.6873601317153715e-04 0.0000000000000000e+00  -2.0814395357524374e-04 4.2945729854782384e-04 0.0000000000000000e+00  0.0000000000000000e+00 0.0000000000000000e+00 0.0000000000000000e+00  -2.6796622770523543e-02 -4.1545209092565233e-02 0.0000000000000000e+00  -2.0835193263834505e-02 -4.5649905590670947e-02 0.0000000000000000e+00  0.0000000000000000e+00 0.0000000000000000e+00 0.0000000000000000e+00  -2.4899136110676671e-02 -2.2747823759513394e-03 0.0000000000000000e+00  -2.2901061159224315e-03 5.1697543184494005e-04 0.0000000000000000e+00  -9.0912690010793351e-04 9.4385524538836003e-05 0.0000000000000000e+00  -5.4744505386133263e-03 2.8038698078336624e-03 0.0000000000000000e+00  -4.6172856375338899e-03 -1.4199593861957721e-03 0.0000000000000000e+00  -3.6005696695453736e-03 -3.5244453063169828e-03 0.0000000000000000e+00  -2.5994134038548108e-02 -1.7533027384776450e-02 0.0000000000000000e+00  -1.2381264773416287e-02 -2.0160693178346893e-02 0.0000000000000000e+00  -1.0716592460367267e-02 -9.6063154898927278e-03 0.0000000000000000e+00  0.0000000000000000e+00 0.0000000000000000e+00 0.0000000000000000e+00  -2.6702501057743834e-02 -4.5805352145131303e-02 0.0000000000000000e+00  -7.4391141340435897e-03 -1.2599740728455788e-03 0.0000000000000000e+00  -1.1292080781692847e-02 3.9904118729322422e-03 0.0000000000000000e+00  -1.4956327211747713e-02 3.9423158821158674e-03 0.0000000000000000e+00  -2.2127370358644132e-02 -4.0510271157407844e-02 0.0000000000000000e+00  -2.4983964497382900e-02 -4.5841666037734234e-03 0.0000000000000000e+00  -2.6867010773957100e-02 -3.5823559279718656e-02 0.0000000000000000e+00  -2.2498671330493242e-02 -3.0674835778426592e-02 0.0000000000000000e+00  -1.7205702000477656e-02 -1.2181765470863515e-02 0.0000000000000000e+00  -1.4203305512017589e-02 -4.7863213933877517e-03 0.0000000000000000e+00  -6.5195433759322359e-03 -2.6421061184284545e-03 0.0000000000000000e+00  -3.5412151916373218e-03 -9.2235090075767966e-04 0.0000000000000000e+00  -1.6463355292809890e-02 7.8413276695627008e-04 0.0000000000000000e+00  -5.8084547222553313e-03 2.1411584971851082e-04 0.0000000000000000e+00  -9.2330743042500201e-03 3.8896194291870626e-03 0.0000000000000000e+00  0.0000000000000000e+00 0.0000000000000000e+00 0.0000000000000000e+00  -1.9982218146066683e-02 -2.0925635633370701e-03 0.0000000000000000e+00  -2.2354952611302499e-02 -4.7439790989457341e-03 0.0000000000000000e+00  -8.9088129461338064e-05 2.9758208657034940e-06 0.0000000000000000e+00  -2.5776175334983456e-02 -2.3486336883238888e-02 0.0000000000000000e+00  -1.7603048536236197e-02 -3.5088479729961639e-02 0.0000000000000000e+00  -1.4917102717445348e-02 2.0442015431194559e-03 0.0000000000000000e+00  -2.3018414284240216e-02 -8.9791727685187474e-03 0.0000000000000000e+00  -2.5580347196716226e-02 -8.8876766735932478e-03 0.0000000000000000e+00  -8.7074211693544470e-03 -3.5257267466618884e-02 0.0000000000000000e+00  -6.8255263837005073e-03 3.1083167561536261e-03 0.0000000000000000e+00  -1.5869074967667773e-02 -3.2518758165902065e-02 0.0000000000000000e+00  -1.1868244199547014e-02 -3.7487611641737965e-02 0.0000000000000000e+00  -8.7002401509778220e-03 1.3242022636253238e-03 0.0000000000000000e+00  -6.6882844533226148e-03 1.7362593153107766e-03 0.0000000000000000e+00  -1.0960364364384561e-02 -8.3199766720592409e-04 0.0000000000000000e+00  -2.4691876776117169e-02 4.8859830837723319e-03 0.0000000000000000e+00  -9.1080714881976270e-03 -1.3575936494502655e-03 0.0000000000000000e+00  -2.2318473726798117e-02 -1.2732288934503375e-02 0.0000000000000000e+00  -1.7844270531090965e-02 4.6509527283705382e-03 0.0000000000000000e+00  -9.2957285926761526e-03 -2.4518420392647063e-02 0.0000000000000000e+00  -1.1821463403968386e-02 -2.5770598170630470e-02 0.0000000000000000e+00  -1.6911119282686578e-02 -2.2900209510481665e-02 0.0000000000000000e+00  -1.8442814529983794e-03 1.2023614418575819e-03 0.0000000000000000e+00  -4.0117945485774326e-03 2.5522192842198431e-03 0.0000000000000000e+00  -1.2876242630847088e-02 -1.0716752118096900e-02 0.0000000000000000e+00  -5.6329028333524257e-04 3.5290024897316485e-04 0.0000000000000000e+00  -2.1877625508440392e-02 -3.5050050019305203e-02 0.0000000000000000e+00  -1.1964225052410762e-02 -2.2936712239778292e-02 0.0000000000000000e+00  -2.8012643507225297e-02 -3.8703326385214266e-02 0.0000000000000000e+00  -1.5234282635903649e-02 -1.2052429313116526e-03 0.0000000000000000e+00  -8.9673003336253939e-03 -2.9815516188243015e-02 0.0000000000000000e+00  -2.1273388186589897e-02 -2.5810039134529471e-02 0.0000000000000000e+00  -1.7853880359131259e-03 1.7535698234813772e-03 0.0000000000000000e+00  -1.8342237011703795e-02 -1.9011283192747440e-02 0.0000000000000000e+00  0.0000000000000000e+00 0.0000000000000000e+00 0.0000000000000000e+00  -6.0140727812500717e-04 -1.0031721605797742e-03 0.0000000000000000e+00  -2.5393425678201908e-04 -4.9003084514844734e-04 0.0000000000000000e+00  -4.9848735289890556e-04 8.2351837742273453e-04 0.0000000000000000e+00  -1.1421740226013305e-02 -3.3840399950925172e-02 0.0000000000000000e+00  -1.2189261773436963e-03 -1.1260569982162799e-03 0.0000000000000000e+00  -3.8603566495179122e-03 -2.9169782399843290e-03 0.0000000000000000e+00  -1.8235101068237926e-02 -1.0014808435233717e-02 0.0000000000000000e+00  -1.6147605543396851e-02 -7.9413165573168978e-03 0.0000000000000000e+00  -1.1294762653457620e-03 1.6136702073923600e-03 0.0000000000000000e+00  -2.3595726843345946e-02 -4.6438339078996166e-02 0.0000000000000000e+00  -2.7290637015110156e-02 -3.2976441700723516e-02 0.0000000000000000e+00  -4.8168996106984907e-04 -3.8660073224008217e-04 0.0000000000000000e+00  -8.7444737032556386e-03 -4.4005747729728983e-03 0.0000000000000000e+00  -1.2813271190598892e-04 -3.1085626233627557e-04 0.0000000000000000e+00  -2.1506858105649284e-03 -2.6428630826904245e-03 0.0000000000000000e+00  0.0000000000000000e+00 0.0000000000000000e+00 0.0000000000000000e+00  -4.9167479891032884e-04 -8.9621374666859271e-04 0.0000000000000000e+00  -8.4897047861690108e-03 -4.0825490142592936e-02 0.0000000000000000e+00  -1.0152018405954295e-02 -1.4451150250071694e-02 0.0000000000000000e+00  -7.6715871367044105e-03 -5.2719566928286776e-03 0.0000000000000000e+00  -8.2443051284971387e-03 -4.6692999365261001e-02 0.0000000000000000e+00  -1.6766867610584112e-02 -4.9234857723285147e-02 0.0000000000000000e+00  0.0000000000000000e+00 0.0000000000000000e+00 0.0000000000000000e+00  -2.7589576372563977e-02 -4.9045834992821780e-02 0.0000000000000000e+00  -2.2171762065035641e-02 -4.9077809215777944e-02 0.0000000000000000e+00  0.0000000000000000e+00 0.0000000000000000e+00 0.0000000000000000e+00  -1.0180944939657280e-02 -6.1864465864348477e-03 0.0000000000000000e+00  -1.1180402117171039e-02 -4.9671026572341050e-02 0.0000000000000000e+00  -9.6912591721938050e-03 -1.9389949041352484e-02 0.0000000000000000e+00  -1.1230521857123136e-03 -1.7616947772831711e-03 0.0000000000000000e+00  -5.4458491007899961e-03 -4.4088405264211617e-03 0.0000000000000000e+00  -9.9530914268951861e-04 5.9747654781964056e-04 0.0000000000000000e+00  -1.1331037290152468e-02 -2.8425593657535116e-02 0.0000000000000000e+00  -1.2940828653150976e-02 4.3712323618840766e-03 0.0000000000000000e+00  -2.0386945310184635e-02 -4.1131934411515634e-03 0.0000000000000000e+00  -4.4283207592200995e-03 8.2685828016255904e-04 0.0000000000000000e+00  -1.2703716347990883e-02 -8.6387479213868249e-04 0.0000000000000000e+00  -8.2675337264709638e-03 -3.3333785971273683e-04 0.0000000000000000e+00  -2.9727285086499663e-03 9.1724641150112390e-04 0.0000000000000000e+00  -2.9018537974030323e-03 2.7898013631159103e-03 0.0000000000000000e+00  -3.1584194527241490e-03 2.2210010163165703e-03 0.0000000000000000e+00  -2.8405413468574986e-04 4.9051201931961180e-04 0.0000000000000000e+00  -3.0831109536652674e-03 -2.6631511598091636e-03 0.0000000000000000e+00  -1.2407959328065282e-03 -2.7342337899741842e-04 0.0000000000000000e+00  -1.3750740714927425e-02 -3.9416544392903513e-02 0.0000000000000000e+00  -4.7675843770145507e-03 -3.3436957656044174e-03 0.0000000000000000e+00  -2.6426660343536808e-02 -1.2444969735587450e-02 0.0000000000000000e+00  -1.3262072034947470e-02 1.4766578835552924e-03 0.0000000000000000e+00  -6.3751435755151692e-03 -3.6534014554591254e-03 0.0000000000000000e+00  -2.5035284643727955e-03 -1.2174940616434444e-04 0.0000000000000000e+00  -2.2988877556804157e-03 -2.2846712976938911e-03 0.0000000000000000e+00  -1.9184459536287283e-02 -5.8840947181941126e-04 0.0000000000000000e+00  -2.1187693553990233e-02 -7.8064400388932788e-03 0.0000000000000000e+00  -2.3572427717045885e-03 1.9262943011415120e-03 0.0000000000000000e+00  -1.4195537204417658e-02 -2.1733560341764425e-02 0.0000000000000000e+00  -2.7293493483897147e-02 -2.1734103517468035e-02 0.0000000000000000e+00  -2.3995909995145059e-02 -1.8429584681046399e-02 0.0000000000000000e+00  -2.2902720808506714e-02 -2.1078297284280543e-02 0.0000000000000000e+00  -1.6662949089289565e-02 -1.7470522744017260e-02 0.0000000000000000e+00  1.1309666000847505e-05 -7.4660863856453255e-05 0.0000000000000000e+00  -1.1069496187520450e-02 -4.3441805212673483e-02 0.0000000000000000e+00  -1.4274080770446724e-02 -4.6728388751338411e-02 0.0000000000000000e+00  -2.4565563996809450e-02 -2.5457445583685255e-02 0