<?xml version="1.0"?>
<VTKFile type="UnstructuredGrid"  version="0.1"  >
<UnstructuredGrid>
<Piece  NumberOfPoints="1067" NumberOfCells="1963">
<Points>
<DataArray  type="Float64"  NumberOfComponents="3"  format="ascii">1 0.3333333333333333 0  0.3333333333333333 0.3333333333333333 0  0.3333333333333333 1 0  0 1 0  0 0 0  1 0 0  0 0.5 0  0.5 0 0  0.3333333333333333 0.6666666666666666 0  0.6666666666666666 0.3333333333333333 0  0 0.75 0  0.25 0 0  0 0.25 0  0.75 0 0  0.1666666666666667 1 0  1 0.1666666666666667 0  0.3333333333333333 0.8333333333333333 0  0.375 0.1458333333333333 0  0.1888706140350877 0.2028508771929824 0  0.3333333333333333 0.5 0  0.8333333333333333 0.3333333333333333 0  0.1524989287154668 0.388331190764267 0  0.5 0.3333333333333333 0  0.5833333333333333 0.1666666666666667 0  0.1458333333333333 0.625 0  0.1583333333333333 0.825 0  0.825 0.1583333333333333 0  0.125 0 0  0 0.125 0  0 0.625 0  0 0.375 0  0.375 0 0  0.625 0 0  0 0.875 0  0.875 0 0  0.7057909604519773 0.2096045197740113 0  0.2033782928772914 0.5081924393159372 0  0.2229753521126761 0.720569248826291 0  0.2420454545454545 0.9087121212121212 0  0.9087121212121212 0.2420454545454545 0  0.4166666666666666 0.3333333333333333 0  0.4732142857142856 0.2157738095238095 0  0.6750921898496802 0.1010647141290868 0  0.3333333333333333 0.4166666666666666 0  0.4768915210573477 0.1066808275729647 0  0.1147181409008132 0.1147181409008132 0  0.219827215200512 0.1015435406570343 0  0.9154835390946502 0.0998456790123457 0  0.09984567901234567 0.9154835390946502 0  0.08229580025091013 0.3125 0  0.2490424622725705 0.6032672531067658 0  0.1006393784575282 0.5301568362439949 0  0.1169995413985014 0.727192736995927 0  0.2263966689731509 0.3065158354789739 0  0.2966728635224111 0.2224517248151044 0  0.09043699241737507 0.2104089341806989 0  0.3125 0.07291666666666667 0  0.07292806175162128 0.4396297689259239 0  0.6224176247481331 0.2512911876259334 0  0.239864329746879 0.4219752441630512 0  0.5625 0.06938154200389178 0  0.75 0.3333333333333333 0  0.7927489005587869 0.2475675126718038 0  0.3859676904520978 0.2461869149974528 0  0.2462310606060606 0.8208143939393939 0  0.7653408376112384 0.08966311200871162 0  0.06732456140350877 0.8125 0  0.3333333333333333 0.9166666666666666 0  0.9166666666666666 0.3333333333333333 0  0.08333333333333333 1 0  0.25 1 0  1 0.08333333333333333 0  1 0.25 0  0.3333333333333333 0.5833333333333333 0  0.3333333333333333 0.75 0  0.5833333333333333 0.3333333333333333 0  0.0625 0 0  0.07291666666666666 0.6595905945441375 0  0.5475816768684841 0.2345166678984481 0  0.1528924117958546 0.2744993329916797 0  0.8411372533802133 0.08406325820630503 0  0.2996637983602427 0.1471631728340777 0  0.4375 0 0  0.4054493459461466 0.07291666666666667 0  0.1440801191314338 0.4626342544081788 0  0.1716727459783015 0.9273685933408156 0  0.8968270669659558 0.1702183875794987 0  0 0.0625 0  0.1875 0 0  0 0.5625 0  0.1617554577346029 0.06411357198912754 0  0.7547177919703033 0.1591425659812248 0  0.2702765804490694 0.5345649711785327 0  0.08689030765479462 0.5948977651265637 0  0.7310390069598418 0.2703457257914622 0  0.9375 0 0  0 0.9375 0  0.4447477682500287 0.2744608764698752 0  0.1606803622837728 0.5597358803146593 0  0.6438968569972591 0.1900329824943801 0  0.2840816202988848 0.375 0  0.08880121935117018 0.3768893831475786 0  0.05501898908686768 0.09374999999999997 0  0.6875 0 0  0.8125 0 0  0 0.8125 0  0.5625 0 0  0 0.4375 0  0 0.1875 0  0 0.3125 0  0.3125 0 0  0 0.6875 0  0.2481953317884629 0.1828222069759379 0  0.237975717832275 0.2447888085739308 0  0.200176069352744 0.7786785170136837 0  0.2659174273276675 0.668564588774316 0  0.2014269398862459 0.6590442473968234 0  0.5361902489011917 0.1258889624633807 0  0.0675070920211801 0.1536645476496686 0  0.2888145418135863 0.4583333333333333 0  0.4389152459630969 0.1600092138755295 0  0.06106116270695027 0.7517361165768591 0  0.7150766468061498 0.05467962723819628 0  0.875 0.290973532000503 0  0.2909735320005029 0.875 0  0.8526144869835004 0.2144309675619541 0  0.9576401986671697 0.2083333333333333 0  0.2041847451790633 0.8628607093663911 0  0.9510163659495721 0.2843496992829054 0  0.2916666666666666 0.9583333333333333 0  0.09375 0.04966715310055026 0  0.6119161044147912 0.109672485429145 0  0.3311579498979588 0.2725512966323962 0  0.226425945410618 0.3650275865962277 0  0.1369397361142181 0.1712827978808029 0  0.2809701888780682 0.724725903187628 0  0.1379758826391655 0.3313643799237706 0  0.4586557180124523 0.05280132961106423 0  0.6887598321031895 0.1558102714243457 0  0.65625 0.04745742439875293 0  0.2861303319373879 0.7809153736790874 0  0.5038734826777268 0.2743345010629015 0  0.6773935352591479 0.2570263390181576 0  0.2798361614180057 0.3200395848847201 0  0.4949315857333921 0.1639857595809101 0  0.3380360928888468 0.186391247091096 0  0.1688076847263596 0.7050048004434435 0  0.1694932372870325 0.1258468186031997 0  0.1076591942820013 0.8563894303660385 0  0.05624279564308041 0.8796546858602379 0  0.125 1 0  0.8864787227825769 0.05347591410888117 0  0.9476420027807178 0.1460305506667086 0  0.2083333333333333 1 0  0.213464560872628 0.04765155683629457 0  0.1244815016517538 0.6741396688406132 0  0.1465842514222262 0.7723276599236152 0  0.04547383511106311 0.53125 0  0.2148758403578392 0.5611737930029497 0  0.3333333333333333 0.625 0  0.5120285103269483 0.05200579557286625 0  0.5557882597572179 0.2874233127303565 0  0.375 0.3333333333333333 0  0.05524798880942433 0.9506415704763231 0  0.9506415704763231 0.05524798880942434 0  0.1972666160395715 0.4547772398129902 0  0.04497829106973091 0.3487936014085283 0  0.05790539181627354 0.2591848609776979 0  0.8711365685983223 0.1257482348431603 0  0.2656491149947962 0.04983052048065093 0  0.8005870837483613 0.050967748851606 0  0.7230963420004116 0.1181590083901302 0  0.4218965800639618 0.2089072825214489 0  0.2811906938680201 0.2700269437372825 0  0.2495323619810901 0.4891505615133008 0  0.1991280016626992 0.6088690683261796 0  0.1409277024673874 0.2232207459103052 0  0.1468243620559488 0.512134886024921 0  0.03740774492937259 0.40625 0  0.2155422481162296 0.950793421692112 0  0.212106654032322 0.1498280878297097 0  0.2713550318729565 0.1040361211330102 0  0.1546665765869578 0.8783505049416189 0  0.6100874230054322 0.06146588433646355 0  0.7902906254281675 0.1962338398758094 0  0.1067887845369411 0.2582214394389009 0  0.3589746729730733 0.09632528030879431 0  0.3550972168408855 0.0461845191969495 0  0.7916666666666666 0.3333333333333333 0  0.04616482742057831 0.4815335788736005 0  0.7513486987797579 0.2238243946198433 0  0.8259111874430654 0.2843602986749449 0  0.1145135976767541 0.4167726763769093 0  0.09410347318951218 0.4826526468125477 0  0.1812616873741859 0.3506638009287041 0  0.04554546899361216 0.04637072539374764 0  0.197422420807303 0.4019311843643738 0  0.4299858672887971 0.1134643652332322 0  0.0461436106684496 0.1953024172515056 0  0.625 0.3333333333333333 0  0.6460078293604408 0.2915217509574419 0  0.6015642854289754 0.209584508987618 0  0.07463129964138498 0.7066466298758631 0  0.03783322102651011 0.59375 0  0.3958333333333333 0.2916919124978751 0  0.114022055899838 0.8100633326221395 0  0.7895154684417436 0.1289111178903929 0  0.600799783427331 0.2916355696893704 0  0.84375 0.03418030363172077 0  0.1917755503464407 0.2491670256216106 0  0.7083333333333333 0.3333333333333333 0  0.6478078564061464 0.1369553479973995 0  0.03144377545163998 0.71875 0  0.5384938547867213 0.1863839274804893 0  0.1306476667572267 0.952317581765362 0  0.2892367660002514 0.83086877593361 0  0.2481080288456043 0.865149100485581 0  0.03366228070175439 0.8414367919466372 0  0.7708333333333333 0.2927142374723782 0  0.2495866311601397 0.7559396780718943 0  0.2937576828079838 0.6041666666666666 0  0.3821593549415586 0.1894814149447491 0  0.3445642076128221 0.2302669507453929 0  0 0.78125 0  0.9599981637499104 0.1031385892720535 0  0.7574153542120744 0.04322853446886453 0  0.204050893649534 0.8206805424098645 0  0.2913165163454587 0.4163901636011871 0  0.2916638078313682 0.9166638078313682 0  0.3333333333333333 0.7083333333333333 0  0.3333333333333333 0.9583333333333333 0  0.3333333333333333 0.875 0  0.875 0.3333333333333333 0  0.4583333333333333 0.3333333333333333 0  0.3333333333333333 0.4583333333333333 0  0.9583333333333333 0.3333333333333333 0  1 0.2083333333333333 0  0.04166666666666666 1 0  1 0.04166666666666666 0  1 0.125 0  0.2916666666666666 1 0  0.3333333333333333 0.375 0  1 0.2916666666666666 0  0.5416666666666666 0.3333333333333333 0  0.3333333333333333 0.7916666666666666 0  0.3333333333333333 0.5416666666666666 0  0.1016069174729423 0.7681284775865405 0  0.6875 0.2973545198413665 0  0.04114790012545506 0.3075231959253509 0  0.2587887510102507 0.1431391960771147 0  0.1193245108135817 0.5679554230146414 0  0.1825380957195719 0.3068227309779981 0  0.1661760896432419 0.4282623189518068 0  0.1070276360235576 0.637347074818211 0  0 0.65625 0  0.03997879087021122 0.6348742039918381 0  0 0.90625 0  0.2979556257795157 0.6441983605310423 0  0.1769907023833003 0.7450354670868354 0  0.854811597523172 0.2553331016660396 0  0.2978902581390474 0.5640107983913386 0  0.422190360774741 0.03677291521413537 0  0.11934455203393 0.2960881760558284 0  0.288741907148047 0.4986855138502997 0  0.1618938936523733 0.6611871845610839 0  0.2987993331180339 0.6898492748391704 0  0.1759603428125616 0.1655905128188335 0  0.3370542346566173 0.1307683920597218 0  0.03886648645263804 0.6798368859108999 0  0.582137712504897 0.2556718560956591 0  0.5811816160381472 0.03469077100194589 0  0.5279722974875536 0.08768410328535482 0  0.5719976896208205 0.108182244938876 0  0.5126558232993131 0.216186636111048 0  0.2544607546659688 0.945918033212819 0  0.9136179827478804 0.2946597939900734 0  0.96132646065674 0.2469513160812137 0  0.6417305609928732 0.08267582195367543 0  0.8333983588276207 0.1212699393091796 0  0.8033911384781 0.08892182866041928 0  0.07360238009281882 0.5582453860506698 0  0 0.15625 0 
[...]
<PointData  Scalars="f_47"> 
<DataArray  type="Float64"  Name="f_47"  format="ascii">1.9996105577417270e-01  3.4003167221759410e-02  1.1474906184123376e-06  1.1554603069679464e-07  8.2551257508633902e-02  2.1515915857389609e-01  1.7878950028452131e-02  1.0891710666174881e-01  9.6436620731752340e-03  1.0196801882082220e-01  4.6543230755226300e-03  8.2865844136474090e-02  4.5871257431844982e-02  1.5628347850456864e-01  -2.1958988759427086e-07  1.9935241582727736e-01  3.5329603446021419e-03  6.7060712806861211e-02  4.7360909624208233e-02  1.9832390343456151e-02  1.4571819135807254e-01  2.2119301024274521e-02  6.3399688137356441e-02  9.6013575447247410e-02  5.3951081961326978e-03  2.2624658083580536e-04  1.5323997474955769e-01  7.9690328619555939e-02  6.4293715677681065e-02  9.7736154632130177e-03  2.9836460285814888e-02  9.2746487379266593e-02  1.3043568192013985e-01  1.6604331850854114e-03  1.8513399946335485e-01  1.1853845703855521e-01  1.2795188584574513e-02  3.6363156388318323e-03  1.0314738143915065e-03  1.6965225882839016e-01  4.7083469566915309e-02  6.9429394054318444e-02  1.2406425792362587e-01  2.6702939756397665e-02  8.6390373210984375e-02  6.1986916649998128e-02  6.5009514980914340e-02  1.8266917357217236e-01  5.7572792631535217e-04  3.2741624252967054e-02  9.0112413681346960e-03  1.1198302912121847e-02  2.0690861205718172e-03  3.2141410553922313e-02  4.7677872001961587e-02  4.7164462830989427e-02  7.4460470482600433e-02  1.9135494272185111e-02  9.5483066839833000e-02  2.0669376063410728e-02  1.0663121140169730e-01  1.2333913318148569e-01  1.3769458569954754e-01  5.2437218257275667e-02  2.2473488184017116e-03  1.4623599792796191e-01  1.6975294859005183e-03  1.5462133108573761e-03  1.6918251515254490e-01  2.5618758924923262e-07  5.3530609116243143e-07  2.0586374933696824e-01  1.9637532804028204e-01  1.4153309790374161e-02  6.1666189593763601e-03  8.1851973845381856e-02  8.0465674530066686e-02  5.3939191891370008e-03  8.0934667642317104e-02  3.6261596874833046e-02  1.6549635839300009e-01  6.0681988890682138e-02  1.0011646991342255e-01  8.2924390051266283e-02  1.5380056474004115e-02  5.2873114745688270e-04  1.7125845068738277e-01  7.3533036044909322e-02  8.0463024753054738e-02  1.3434555508140520e-02  7.0128693685262061e-02  1.3537416039921654e-01  1.3897381996068423e-02  7.8378127982965846e-03  1.2046934053049713e-01  2.0008821963637510e-01  6.8326346101589130e-04  5.7616597357483507e-02  8.7494926313713400e-03  1.0604100700644571e-01  2.7028184958526724e-02  2.4761989156637004e-02  6.6602923691101421e-02  1.4288035100287924e-01  1.7043964357702127e-01  2.9477025835925414e-03  1.1910551137801871e-01  2.3358936776286143e-02  5.4955916540524827e-02  3.7423280537372226e-02  8.6981025694579245e-02  6.9017353721060083e-03  5.2012492971430672e-02  4.1425552613100526e-02  1.7556884152449025e-03  6.8830181609766065e-03  4.9075853705728249e-03  9.2898854034837525e-02  5.6805907302265479e-02  2.0388566922513108e-02  7.2368440783756510e-02  2.9599333468699343e-03  1.3969381756985169e-01  1.5794738924087107e-01  2.0306434849211570e-03  1.5581985318465169e-01  1.8556435437991894e-01  1.0076690977429182e-03  1.8037133156538823e-01  5.8979262772703280e-04  7.2525513925277021e-02  1.0959690791811061e-01  4.2333991161020344e-02  2.5359051589932766e-02  5.2528038918711578e-02  5.4417764783978922e-03  2.8770094125264867e-02  9.3147689133984371e-02  1.2003824065393200e-01  1.2829377040226991e-01  3.9891553319488342e-03  6.8394297415593414e-02  1.0797895786919173e-01  3.2153666272256493e-02  8.0228114983440749e-02  5.6794321344085512e-02  2.6172496425483417e-03  6.0039465785199253e-02  6.3620304046191724e-04  1.1241505978161566e-03  3.0697061487916700e-07  1.8062304390452050e-01  1.8691193507119505e-01  4.7488429745940261e-07  7.3805887326449091e-02  3.5707648395184202e-03  7.6430525254237206e-04  1.3223161452756397e-02  9.8986163301791070e-03  1.1748136737831842e-02  1.0115168374659041e-01  7.8012753431491361e-02  4.0069478549295982e-02  4.6781126296026229e-04  1.9642928135180895e-01  1.6529279512482078e-02  2.9980609233552693e-02  4.1129707933007728e-02  1.6849912681423806e-01  7.5573955797414258e-02  1.5995181317696261e-01  1.3258677902751270e-01  6.2594851162475748e-02  3.9164422701664273e-02  1.5928645162051541e-02  6.9418403500742260e-03  4.4138334338999906e-02  1.1683840992115158e-02  2.4104217925221626e-02  5.0618096704480888e-04  5.6604603545298490e-02  6.6601371994213315e-02  4.2568597400005154e-04  1.1679233727767589e-01  1.4077475267463868e-01  3.9473196204198778e-02  7.4087607293732941e-02  8.2549138587322143e-02  1.3439865660794584e-01  1.6806604139602152e-02  1.2863805571659956e-01  1.4473666311894201e-01  1.9856421675522536e-02  1.4757888540407669e-02  2.6204703750753539e-02  7.4109339528650953e-02  2.1061196966648182e-02  7.8816129210470112e-02  5.1172047281710403e-02  9.1749187938643118e-02  9.8386450493571684e-02  9.4722718901130418e-02  3.7359694769239201e-03  9.7763831302725857e-03  4.7834691628296636e-02  7.0653506540388218e-04  1.4730778753538704e-01  8.7785034673978579e-02  1.7268567031354168e-01  3.9985312352408493e-02  1.1251680447408682e-01  1.1327485660502606e-01  4.7252954835340947e-03  8.4770076815883375e-02  4.0113397263729403e-04  2.8895969248402551e-03  1.6351364607064037e-03  1.8722851789751715e-03  1.2977779887442814e-01  3.5965924259163456e-03  1.1014408625849613e-02  6.0640476011020183e-02  5.0198310690215582e-02  3.7335110433847972e-03  1.9383512758930971e-01  1.5099088169861824e-01  1.3290483959882222e-03  2.3962508846603885e-02  1.2875887628666040e-03  7.7820222775742427e-03  7.3918846586160623e-04  2.4722264303441602e-03  1.5723968068043973e-01  5.4941632104360073e-02  2.3118391635973852e-02  1.8204298293623120e-01  1.9732677248179059e-01  2.0142718591778188e-07  2.1021170270743561e-01  2.0221685259099020e-01  1.6349205506467494e-07  3.0487251520697645e-02  1.9690303600737707e-01  7.2363707392163995e-02  4.7684680244445840e-03  1.6841124431616630e-02  1.5443162779849395e-03  1.0826803827487383e-01  3.5352472764305733e-02  5.9258168430788433e-02  8.4673200319113056e-03  3.1609011850322687e-02  1.8312647977307236e-02  5.3266001247282641e-03  8.2485947289015517e-03  7.6384177102701706e-03  1.1399264532668766e-03  9.2255176181677348e-03  1.7785942503925323e-03  1.5386851875484012e-01  1.3497355214018620e-02  9.1380019028729415e-02  3.3795131831408913e-02  1.7329952032824891e-02  3.9921326174672265e-03  7.3067352325886618e-03  5.3437935866988702e-02  6.6212077483149182e-02  5.8209380387369263e-03  8.6160656822244622e-02  1.1597788389429627e-01  9.7609473934590754e-02  1.0209813274857951e-01  7.6276255632809820e-02  6.6091371336248340e-04  1.6876800291379329e-01  1.8489516509048443e-01  1.1971810625541031e-01  1.5922848418329874e-01  1.5554222955232092e-01  1.0315229386041480e-02  5.9599087106234190e-02  3.4688529024283558e-04  5.4233881179830815e-02  3.0309897976419422e-04  2.0759441924948990e-01  4.1636930277436569e-02  1.0881481415897169e-01  1.3682825843157791e-02  6.0609842358933144e-02  2.8004777466342089e-03  1.9258222505145572e-01  7.3930799278199469e-02  6.7938917992029349e-02  1.7462068135963821e-01  6.1858757479276057e-02  6.8094178552698019e-03  7.5573463647407108e-02  2.0609988090654736e-02  7.9972576323810871e-02  7.6966106029269677e-04  1.6050356850584482e-01  3.5440542305184195e-04  1.7684606633113756e-01  4.8204423935762876e-04  1.7471265623968235e-01  1.0987160100778856e-01  6.6629609734247572e-02  1.1091374374311146e-02  1.3074951157180617e-02  5.6232321639226590e-02  5.0329370676685178e-02  8.7621448698771052e-04  1.0417809726599095e-01  6.7254534534186006e-02  1.9194827150247407e-01  4.1540140458544754e-02  4.6460892105416637e-02  1.2545291645344281e-01  7.0235105832015254e-02  1.6328049859334010e-01  3.6737182708299128e-02  2.9115068845943011e-02  6.1573180262602258e-02  6.1854959819018618e-02  6.5816749084774084e-02  6.9741723775751691e-02  6.8482278957582507e-02  7.5083600839063708e-02  1.7060404989077602e-02  1.3876582094458209e-02  1.4580387987478993e-01  1.2968897548216389e-03  1.8743481405345118e-02  8.6390172710882590e-02  2.0482479287343133e-02  8.0525407059902840e-03  5.2166241110773275e-03  4.6536530644256885e-03  1.4422126681195732e-01  1.4000684925516094e-01  5.6701396793739561e-02  1.8719063392749974e-01  8.9534542617493926e-02  8.5598044146813365e-02  1.0085732476385641e-01  2.8171803823749172e-02  2.5062508002850523e-02  3.5372230674295839e-02  1.1642546086844015e-01  1.0387495176271371e-02  7.0149875950502325e-03  1.1392346091902736e-01  1.6502513727090148e-01  6.8157316215975896e-03  6.4793085941916434e-02  3.6534644826977304e-02  1.2010608375842359e-01  1.2906296582212121e-01  7.9891952905004809e-02  6.7412044177994720e-02  7.9624688691299364e-02  6.9231387767618308e-02  5.5329518303698075e-02  5.1704244846195381e-02  8.1368744100937834e-02  7.8072115455027277e-02  9.3299819931549510e-02  3.0069714332834306e-03  1.0035231075338323e-01  1.4948626763839526e-01  1.3083136862149028e-01  2.1635746381103223e-02  1.7990500859097847e-01  4.4112395803568800e-02  3.0445810433496392e-02  2.3685808247789604e-02  5.3509336107075214e-03  1.3894764825592873e-01  1.0180800203490360e-01  1.5775406993545221e-02  6.8941809426504533e-02  7.0500905234873887e-02  1.2276182476193510e-01  2.8892018242661899e-02  1.8992272497467624e-01  8.4699488103940179e-02  1.1862166040182776e-02  5.3591094638546014e-04  1.4934411349525542e-01  8.9649125085686010e-02  4.3362182700654978e-02  4.6616685313744070e-02  4.9943330476066417e-02  5.1080398473298726e-02  1.4630584432483646e-03  1.5309610685168954e-02  1.4551995039167268e-01  1.0433512566830234e-01  9.6218677134481831e-02  2.2707873802314087e-03  5.7026984430379804e-03  1.7772529382717603e-01  1.1498542393974385e-02  2.6476266812423203e-02  3.3503114660832209e-02  1.5569980953142671e-02  8.1446189728709137e-02  1.3654554010880346e-01  7.9896252185216260e-02  1.1383489839931683e-01  1.2460054501851267e-01  8.0814695939891799e-04  2.5340759355488730e-03  7.4835207360229904e-03  9.1375523951893481e-02  9.0331569133288672e-02  9.8472696147970246e-03  4.1849864054992324e-02  6.7372746388911164e-04  1.3076076530500991e-01  1.3703547199146052e-01  5.1832761736769352e-02  2.0549817478483874e-03  3.8587859846346095e-03  2.6126403392165952e-03  5.1050391810461893e-02  8.0141790917311787e-02  4.6497879770898268e-02  4.5500311397340371e-02  5.7752260929308664e-02  4.9019550649689450e-02  6.3883921350110142e-03  1.2581710032130735e-02  7.7691918925306953e-04  1.0945869639349719e-01  2.0144806047043183e-02  2.5728683491244508e-04  7.8062745539846629e-02  1.7345981278554937e-01  1.3732831132293941e-01  1.7231569854032853e-04  3.6211918285091946e-02  3.1409089472812977e-03  7.6451973522201767e-04  1.5610527408137526e-03  2.7534757783402950e-03  1.7831826284360974e-01  1.5166243292367346e-01  1.6189390101369519e-01  1.4438945409612958e-03  2.3351087743546568e-02  2.1004868671099059e-03  8.7594729292024859e-02  1.0279933687041760e-03  2.4684369362674832e-02  7.3983485251880643e-02  1.8966775206162675e-01  1.7572687704699674e-01  3.7503763115218835e-03  4.5143990594989518e-02  2.7220027846783876e-02  1.8418845752478387e-03  3.7094974004085485e-04  1.8949927015009257e-01  2.5457473801314152e-04  1.0357110308118536e-03  5.5577928656508610e-02  1.1263169418501305e-03  3.2038359905739035e-02  7.5997900581044248e-02  7.0370042509795269e-02  1.3121462061284053e-01  2.6506353148045884e-02  2.2472820354179707e-02  2.9559294447769661e-02  1.1220909241058773e-01  6.2726805275994547e-03  2.0417271664580527e-01  4.6598107730047751e-04  1.4867910891266248e-01  2.7669408024530402e-02  5.1279561472104048e-03  8.5424068890868052e-02  3.3579881864384126e-03  1.3029292926207958e-01  4.3344538215846093e-02  2.4519373574520931e-03  1.8539635082307918e-01  6.3195033996865893e-02  9.6646695785648190e-02  5.4996665518454460e-02  1.2918490694879076e-01  3.1020394217851226e-07  2.0795781565140531e-01  1.9942666523107369e-01  7.1720203718033837e-02  1.1340173303127763e-02  1.8021761692427883e-02  1.8561921567517420e-01  1.6134442265645829e-01  1.5068177194846404e-03  1.2031181265865037e-01  1.9449634685755257e-01  2.4920491642462304e-03  4.2780225831362998e-07  3.1221979858540622e-04  1.8466673956466495e-01  7.4189232389456031e-02  1.3639246079652470e-01  1.0267239779951107e-01  3.6522538569446822e-03  8.3702148345515773e-02  6.3580069506754877e-02  3.6446074273330228e-02  6.2371639274127165e-02  1.0696785469725408e-01  1.1768827985561040e-02  4.4564905002235089e-03  1.1327882618298299e-01  1.1309883347346242e-01  1.5806306226875379e-02  7.8624865820226833e-02  3.3204526972006675e-02  3.2590150943129823e-02  2.9168985176806987e-02  1.9140275833144926e-01  6.6302269366874445e-02  2.9816067374921497e-03  2.2191144994840564e-02  7.7214700700250535e-02  5.8864953922116256e-02  5.1970746949106118e-02  3.3837997933385731e-02  7.1783937043898710e-02  7.7128278045871274e-02  1.7300897126147388e-01  1.9669262087890982e-01  1.6234085148847796e-01  1.1516724220816216e-01  1.3379353309836021e-07  1.7841383183211504e-02  1.6316701538395947e-01  7.1551915244042655e-02  2.6272607316505216e-03  2.8878465754776039e-02  9.2616384644835740e-03  7.6450516869915386e-02  4.2757976914566936e-03  2.3883442224605249e-04  6.6265436506925243e-04  1.4554854688533356e-02  1.5731108476382493e-02  2.3909745499010097e-02  3.8406371070696811e-02  8.5946441017935332e-02  4.3522647458670363e-03  4.4602425660246626e-03  2.4997520076209298e-02  2.1917161812598858e-03  7.7076291893330498e-02  8.1495356261318722e-02  6.0863297590909773e-03  2.4678069101199420e-04  1.8906189051865939e-02  1.0424439021454072e-01  2.1243621663689056e-02  8.1469296078836467e-04  3.9862038440898855e-02  1.0703272071391839e-01  4.6836639523418204e-02  9.1964520753515522e-02  6.9501105260465754e-02  1.6221319749051399e-01  1.5227475670136209e-01  7.3741992435707601e-02  8.0136253657830336e-02  3.7043166082455174e-07  7.1054342675502119e-02  1.0276530103930156e-03  5.2501773539830640e-04  1.2534777557779721e-03  5.7459654492198864e-02  6.6891054663365507e-02  3.6446723715379929e-02  5.1293664505847658e-02  1.1869801481589903e-02  6.3490272514245674e-02  9.6582042478504201e-02  1.0045788697381483e-01  1.3903287364661593e-01  1.7561106570408738e-01  1.6748511774109731e-01  1.6800848708277252e-01  7.7521478856558773e-02  2.4661351801288510e-04  2.5355668573997608e-04  1.3760899231570470e-01  3.8035612868755859e-04  1.2301011781478123e-01  4.2861921185740205e-02  1.2576520085817883e-01  1.1393075996382162e-02  3.9545963944239315e-02  1.5889070904653915e-01  4.2963302062695441e-02  1.0137499693907535e-02  1.3535002889822156e-03  8.7479096546396309e-02  8.2830091469633348e-03  6.5482904588164317e-02  2.3494190056821994e-04  4.0601097700216499e-02  3.5284418397223294e-02  4.1770397395733396e-03  1.5317067822512220e-02  1.8057467088426954e-02  2.7715151256252363e-07  7.3396242686569536e-04  5.9299361371972304e-03  1.1827772485381251e-03  7.1072578121411142e-02  4.8428804911301610e-04  1.8225999592886195e-02  3.0600097135666325e-02  1.3473222736490882e-02  5.9073619379803433e-02  1.5177847543805470e-01  1.4376382247653741e-01  7.5913599703434934e-02  1.5655232215404119e-01  7.7888271838532822e-02  7.8206743948019616e-03  3.7819802624716889e-02  1.4576450151901341e-01  2.7230065594811195e-02  8.9204470649692606e-03  8.3425270716909194e-03  9.7673750482536337e-03  1.1442258837398345e-01  8.1483215881609533e-02  6.2828024033569092e-03  5.5776295517587011e-02  6.0807496241802872e-02  5.9382342957862419e-02  3.9779857331639509e-02  3.8741562059869859e-02  2.2311518160902138e-02  5.6285521695318919e-02  7.9037748177792355e-02  2.3340445964041924e-02  2.1748341424391554e-02  1.1495826135050940e-02  1.9816526741766738e-01  1.0106385341434988e-01  3.0895074360597131e-03  7.4216991840351951e-02  4.3435989343422682e-03  1.5046255837509082e-01  1.6524250183055147e-01  1.0188339955042656e-01  7.4951867657617147e-02  1.9781421973053239e-02  1.1246323554412102e-01  1.2325974587012425e-01  8.6759869472212522e-02  9.2296788474228508e-02  9.6843863964739194e-02  1.3430106518968105e-01  1.6902066410084357e-01  4.3559708637516417e-02  7.5688989087166050e-02  7.5714267461196444e-02  4.7604019667730964e-04  4.8455396800579177e-04  1.0316703880853291e-02  1.6857579572019173e-02  1.5629377731075068e-02  1.9182115583620273e-02  7.8403568362835380e-02  1.7845630535983234e-01  7.0309640151393446e-02  1.2659016189624018e-02  1.3254057976764375e-01  1.3463823318227378e-01  1.2475298471803670e-01  6.1942759151151078e-02  1.4359694613523522e-01  5.5401450897889087e-02  1.2936783107822605e-02  8.9457815600777243e-02  5.4624910198284055e-02  8.1149668958743981e-02  8.0981535280742603e-02  7.4231445303431454e-02  6.0378847638415806e-02  1.9207825209446391e-01  1.8975476307108421e-01  1.9269023076098114e-02  3.6872571313054263e-02  3.7406968453563699e-03  4.6774717633813754e-03  5.0544712392566282e-04  6.5117948386079743e-03  6.1292304991913899e-03  6.5180305230797181e-02  2.4867940297678207e-03  1.4045867684325131e-02  8.8590492675003126e-03  8.9326873176541824e-02  1.9465768971653696e-01  9.1007082465975331e-02  9.6133997925675715e-02  1.0222084336896925e-01  9.5612034081173441e-02  4.9028808517470406e-04  4.9180858175729029e-02  4.7193182956281964e-02  4.3374326145814490e-02  5.3329383656295831e-02  1.2522524066143736e-01  6.1030795844629546e-02  4.8669194978018138e-02  3.2590678309445981e-02  6.2591919673040855e-02  1.2058910768785081e-03  1.4625916444847639e-01  1.4979105270640233e-01  1.4101740674360927e-01  1.1398356910403478e-02  6.6121738084936016e-02  8.6055687815936961e-04  9.0690284820087119e-02  5.0259809055044858e-03  9.1034391478963098e-02  5.4293411924335414e-02  8.6277308109515578e-03  1.3168211329871191e-01  1.6627687859172469e-01  2.0394317771976489e-01  1.4712983862990336e-02  1.8076391273986173e-01  2.2308727071354402e-02  1.4555832908467202e-02  7.2120899222725392e-03  6.3497277578895214e-03  8.8540084135025178e-04  1.8381240753587680e-01  5.4424677116694103e-03  3.0710946315573205e-04  3.1092566800381211e-02  1.1941700711017131e-01  8.3656364944493550e-02  1.6962395913825970e-01  4.8759053739330066e-02  3.3289910561823295e-03  9.5251018157538718e-03  9.2280703895543099e-04  1.3862555271185081e-01  2.0222994396241289e-01  8.5294163386171198e-02  7.1537433427623739e-02  6.1768053297944130e-04  1.0752034365607404e-02  1.2899684816480076e-02  1.2792358246926608e-02  8.6287707788470862e-04  1.7836542188152452e-02  8.6136925097778907e-04  9.3612235878173564e-02  3.9753629047931713e-02  5.7213897514534337e-03  1.5404515866498578e-01  3.9106407080808078e-02  5.3842288848624124e-02  1.4401072129304382e-03  1.7360862333438414e-03  7.3739421611625749e-02  2.0391708483985765e-03  1.2564555710947548e-01  5.0926826545703310e-02  4.6304251646503314e-02  5.7655482693037457e-03  1.8041706538707417e-01  1.5691571206080418e-01  2.6330420620897150e-02  1.8798499565515605e-03  3.8071039242004276e-03  7.5737680547192567e-03  1.3436369914041648e-03  1.7907377812047209e-01  1.4549504368841057e-01  3.2286123076565698e-02  2.2574630644647633e-03  1.0592485817463847e-01  8.5101594636308397e-02  4.0691372857683782e-02  1.6398858608944883e-01  3.6050879824968038e-03  5.5552678089969623e-04  1.6973660682452665e-02  2.0138673322942151e-02  2.9378045965151277e-02  4.7362075701433389e-03  1.5995433629639072e-01  5.9149414926560874e-02  2.8165847302932877e-02  1.9372040490832157e-03  2.5951652819650819e-03  2.1260678218535245e-01  9.7747064013979923e-02  1.2095054652842674e-01  3.0676394681885344e-03  1.7841647124470464e-03  5.3327087231230530e-02  2.4466341894972907e-02  6.2968205585345327e-02  2.4284781165315881e-02  7.4009954624526447e-02  3.6858851052908148e-02  1.3584472124516553e-01  7.5947976517826638e-03  1.2944545231900794e-03  2.3239675640901586e-04  1.8789017228103519e-01  2.2867183207978745e-03  5.3857239089215102e-02  4.3360389530839471e-04  5.0878098594188535e-02  1.7885211913575189