<?xml version="1.0"?>
<VTKFile type="UnstructuredGrid"  version="0.1"  >
<UnstructuredGrid>
<Piece  NumberOfPoints="5319" NumberOfCells="9708">
<Points>
<DataArray  type="Float64"  NumberOfComponents="3"  format="ascii">0 1 0  0 0.9916666666666667 0  0.008333333333333333 1 0  0.008333333333333333 0.9916666666666667 0  0.01666666666666667 1 0  0.01666666666666667 0.9916666666666667 0  0.025 1 0  0.025 0.9916666666666667 0  0.03333333333333333 1 0  0.03333333333333333 0.9916666666666667 0  0.04166666666666666 1 0  0.04166666666666666 0.9916666666666667 0  0.05 1 0  0.05 0.9916666666666667 0  0.05833333333333333 1 0  0.05833333333333333 0.9916666666666667 0  0.06666666666666667 1 0  0.06666666666666667 0.9916666666666667 0  0.25 1 0  0.25 0.9916666666666667 0  0.2583333333333334 1 0  0.2583333333333334 0.9916666666666667 0  0.2666666666666667 1 0  0.2666666666666667 0.9916666666666667 0  0.275 1 0  0.275 0.9916666666666667 0  0.2833333333333333 1 0  0.2833333333333333 0.9916666666666667 0  0.2916666666666667 1 0  0.2916666666666667 0.9916666666666667 0  0.3 1 0  0.3 0.9916666666666667 0  0.3083333333333333 1 0  0.3083333333333333 0.9916666666666667 0  0.3166666666666667 1 0  0.3166666666666667 0.9916666666666667 0  0.325 1 0  0.325 0.9916666666666667 0  0.3333333333333333 1 0  0.3333333333333333 0.9916666666666667 0  0 0.9833333333333333 0  0.008333333333333333 0.9833333333333333 0  0.01666666666666667 0.9833333333333333 0  0.025 0.9833333333333333 0  0.03333333333333333 0.9833333333333333 0  0.04166666666666666 0.9833333333333333 0  0.05 0.9833333333333333 0  0.05833333333333333 0.9833333333333333 0  0.06666666666666667 0.9833333333333333 0  0.25 0.9833333333333333 0  0.2583333333333334 0.9833333333333333 0  0.2666666666666667 0.9833333333333333 0  0.275 0.9833333333333333 0  0.2833333333333333 0.9833333333333333 0  0.2916666666666667 0.9833333333333333 0  0.3 0.9833333333333333 0  0.3083333333333333 0.9833333333333333 0  0.3166666666666667 0.9833333333333333 0  0.325 0.9833333333333333 0  0.3333333333333333 0.9833333333333333 0  0 0.975 0  0.008333333333333333 0.975 0  0.01666666666666667 0.975 0  0.025 0.975 0  0.03333333333333333 0.975 0  0.04166666666666666 0.975 0  0.05 0.975 0  0.05833333333333333 0.975 0  0.06666666666666667 0.975 0  0.25 0.975 0  0.2583333333333334 0.975 0  0.2666666666666667 0.975 0  0.275 0.975 0  0.2833333333333333 0.975 0  0.2916666666666667 0.975 0  0.3 0.975 0  0.3083333333333333 0.975 0  0.3166666666666667 0.975 0  0.325 0.975 0  0.3333333333333333 0.975 0  0 0.9666666666666667 0  0.008333333333333333 0.9666666666666667 0  0.01666666666666667 0.9666666666666667 0  0.025 0.9666666666666667 0  0.03333333333333333 0.9666666666666667 0  0.04166666666666666 0.9666666666666667 0  0.05 0.9666666666666667 0  0.05833333333333333 0.9666666666666667 0  0.06666666666666667 0.9666666666666667 0  0.25 0.9666666666666667 0  0.2583333333333334 0.9666666666666667 0  0.2666666666666667 0.9666666666666667 0  0.275 0.9666666666666667 0  0.2833333333333333 0.9666666666666667 0  0.2916666666666667 0.9666666666666667 0  0.3 0.9666666666666667 0  0.3083333333333333 0.9666666666666667 0  0.3166666666666667 0.9666666666666667 0  0.325 0.9666666666666667 0  0.3333333333333333 0.9666666666666667 0  0 0.9583333333333334 0  0.008333333333333333 0.9583333333333334 0  0.01666666666666667 0.9583333333333334 0  0.025 0.9583333333333334 0  0.03333333333333333 0.9583333333333334 0  0.04166666666666666 0.9583333333333334 0  0.05 0.9583333333333334 0  0.05833333333333333 0.9583333333333334 0  0.06666666666666667 0.9583333333333334 0  0.25 0.9583333333333334 0  0.2583333333333334 0.9583333333333334 0  0.2666666666666667 0.9583333333333334 0  0.275 0.9583333333333334 0  0.2833333333333333 0.9583333333333334 0  0.2916666666666667 0.9583333333333334 0  0.3 0.9583333333333334 0  0.3083333333333333 0.9583333333333334 0  0.3166666666666667 0.9583333333333334 0  0.325 0.9583333333333334 0  0.3333333333333333 0.9583333333333334 0  0 0.95 0  0.008333333333333333 0.95 0  0.01666666666666667 0.95 0  0.025 0.95 0  0.03333333333333333 0.95 0  0.04166666666666666 0.95 0  0.05 0.95 0  0.05833333333333333 0.95 0  0.06666666666666667 0.95 0  0.25 0.95 0  0.2583333333333334 0.95 0  0.2666666666666667 0.95 0  0.275 0.95 0  0.2833333333333333 0.95 0  0.2916666666666667 0.95 0  0.3 0.95 0  0.3083333333333333 0.95 0  0.3166666666666667 0.95 0  0.325 0.95 0  0.3333333333333333 0.95 0  0 0.9416666666666667 0  0.008333333333333333 0.9416666666666667 0  0.01666666666666667 0.9416666666666667 0  0.025 0.9416666666666667 0  0.03333333333333333 0.9416666666666667 0  0.04166666666666666 0.9416666666666667 0  0.05 0.9416666666666667 0  0.05833333333333333 0.9416666666666667 0  0.06666666666666667 0.9416666666666667 0  0.25 0.9416666666666667 0  0.2583333333333334 0.9416666666666667 0  0.2666666666666667 0.9416666666666667 0  0.275 0.9416666666666667 0  0.2833333333333333 0.9416666666666667 0  0.2916666666666667 0.9416666666666667 0  0.3 0.9416666666666667 0  0.3083333333333333 0.9416666666666667 0  0.3166666666666667 0.9416666666666667 0  0.325 0.9416666666666667 0  0.3333333333333333 0.9416666666666667 0  0 0.9333333333333333 0  0.008333333333333333 0.9333333333333333 0  0.01666666666666667 0.9333333333333333 0  0.025 0.9333333333333333 0  0.03333333333333333 0.9333333333333333 0  0.04166666666666666 0.9333333333333333 0  0.05 0.9333333333333333 0  0.05833333333333333 0.9333333333333333 0  0.06666666666666667 0.9333333333333333 0  0.25 0.9333333333333333 0  0.2583333333333334 0.9333333333333333 0  0.2666666666666667 0.9333333333333333 0  0.275 0.9333333333333333 0  0.2833333333333333 0.9333333333333333 0  0.2916666666666667 0.9333333333333333 0  0.3 0.9333333333333333 0  0.3083333333333333 0.9333333333333333 0  0.3166666666666667 0.9333333333333333 0  0.325 0.9333333333333333 0  0.3333333333333333 0.9333333333333333 0  0 0.925 0  0.008333333333333333 0.925 0  0.01666666666666667 0.925 0  0.025 0.925 0  0.03333333333333333 0.925 0  0.04166666666666666 0.925 0  0.05 0.925 0  0.05833333333333333 0.925 0  0.06666666666666667 0.925 0  0.25 0.925 0  0.2583333333333334 0.925 0  0.2666666666666667 0.925 0  0.275 0.925 0  0.2833333333333333 0.925 0  0.2916666666666667 0.925 0  0.3 0.925 0  0.3083333333333333 0.925 0  0.3166666666666667 0.925 0  0.325 0.925 0  0.3333333333333333 0.925 0  0 0.9166666666666666 0  0.008333333333333333 0.9166666666666666 0  0.01666666666666667 0.9166666666666666 0  0.025 0.9166666666666666 0  0.03333333333333333 0.9166666666666666 0  0.04166666666666666 0.9166666666666666 0  0.05 0.9166666666666666 0  0.05833333333333333 0.9166666666666666 0  0.06666666666666667 0.9166666666666666 0  0.25 0.9166666666666666 0  0.2583333333333334 0.9166666666666666 0  0.2666666666666667 0.9166666666666666 0  0.275 0.9166666666666666 0  0.2833333333333333 0.9166666666666666 0  0.2916666666666667 0.9166666666666666 0  0.3 0.9166666666666666 0  0.3083333333333333 0.9166666666666666 0  0.3166666666666667 0.9166666666666666 0  0.325 0.9166666666666666 0  0.3333333333333333 0.9166666666666666 0  0 0.9083333333333333 0  0.008333333333333333 0.9083333333333333 0  0.01666666666666667 0.9083333333333333 0  0.025 0.9083333333333333 0  0.03333333333333333 0.9083333333333333 0  0.04166666666666666 0.9083333333333333 0  0.05 0.9083333333333333 0  0.05833333333333333 0.9083333333333333 0  0.06666666666666667 0.9083333333333333 0  0.25 0.9083333333333333 0  0.2583333333333334 0.9083333333333333 0  0.2666666666666667 0.9083333333333333 0  0.275 0.9083333333333333 0  0.2833333333333333 0.9083333333333333 0  0.2916666666666667 0.9083333333333333 0  0.3 0.9083333333333333 0  0.3083333333333333 0.9083333333333333 0  0.3166666666666667 0.9083333333333333 0  0.325 0.9083333333333333 0  0.3333333333333333 0.9083333333333333 0  0 0.9 0  0.008333333333333333 0.9 0  0.01666666666666667 0.9 0  0.025 0.9 0  0.03333333333333333 0.9 0  0.04166666666666666 0.9 0  0.05 0.9 0  0.05833333333333333 0.9 0  0.06666666666666667 0.9 0  0.25 0.9 0  0.2583333333333334 0.9 0  0.2666666666666667 0.9 0  0.275 0.9 0  0.2833333333333333 0.9 0  0.2916666666666667 0.9 0  0.3 0.9 0  0.3083333333333333 0.9 0  0.3166666666666667 0.9 0  0.325 0.9 0  0.3333333333333333 0.9 0  0 0.8916666666666667 0  0.008333333333333333 0.8916666666666667 0  0.01666666666666667 0.8916666666666667 0  0.025 0.8916666666666667 0  0.03333333333333333 0.8916666666666667 0  0.04166666666666666 0.8916666666666667 0  0.05 0.8916666666666667 0  0.05833333333333333 0.8916666666666667 0  0.06666666666666667 0.8916666666666667 0  0.25 0.8916666666666667 0  0.2583333333333334 0.8916666666666667 0  0.2666666666666667 0.8916666666666667 0  0.275 0.8916666666666667 0  0.2833333333333333 0.8916666666666667 0  0.2916666666666667 0.8916666666666667 0  0.3 0.8916666666666667 0  0.3083333333333333 0.8916666666666667 0  0.3166666666666667 0.8916666666666667 0  0.325 0.8916666666666667 0  0.3333333333333333 0.8916666666666667 0  0 0.8833333333333333 0  0.008333333333333333 0.8833333333333333 0  0.01666666666666667 0.8833333333333333 0  0.025 0.8833333333333333 0  0.03333333333333333 0.8833333333333333 0  0.04166666666666666 0.8833333333333333 0  0.05 0.8833333333333333 0  0.05833333333333333 0.8833333333333333 0  0.06666666666666667 0.8833333333333333 0  0.25 0.8833333333333333 0  0.2583333333333334 0.8833333333333333 0  0.2666666666666667 0.8833333333333333 0  0.275 0.8833333333333333 0  0.2833333333333333 0.8833333333333333 0  0.2916666666666667 0.8833333333333333 0  0.3 0.8833333333333333 0  0.3083333333333333 0.8833333333333333 0  0.3166666666666667 0.8833333333333333 0  0.325 0.8833333333333333 0  0.3333333333333333 0.8833333333333333 0  0 0.875 0  0.008333333333333333 0.875 0  0.01666666666666667 0.875 0  0.025 0.875 0  0.03333333333333333 0.875 0  0.04166666666666666 0.875 0  0.05 0.875 0  0.05833333333333333 0.875 0  0.06666666666666667 0.875 0  0.25 0.875 0  0.2583333333333334 0.875 0  0.2666666666666667 0.875 0  0.275 0.875 0  
[...]
<PointData  Vectors="f_90"> 
<DataArray  type="Float64"  Name="f_90"  NumberOfComponents="3" format="ascii">0.0000000000000000e+00 0.0000000000000000e+00 0.0000000000000000e+00  -1.5748021834852800e-04 2.1599582564911144e-04 0.0000000000000000e+00  0.0000000000000000e+00 0.0000000000000000e+00 0.0000000000000000e+00  -9.1747523132318511e-05 1.7308625170986934e-04 0.0000000000000000e+00  0.0000000000000000e+00 0.0000000000000000e+00 0.0000000000000000e+00  -5.3162568928084558e-05 1.6826350642765698e-04 0.0000000000000000e+00  0.0000000000000000e+00 0.0000000000000000e+00 0.0000000000000000e+00  -2.2321922869935492e-05 1.7028329985930841e-04 0.0000000000000000e+00  0.0000000000000000e+00 0.0000000000000000e+00 0.0000000000000000e+00  6.4083972023058146e-06 1.7466210154144072e-04 0.0000000000000000e+00  0.0000000000000000e+00 0.0000000000000000e+00 0.0000000000000000e+00  3.6401022863148562e-05 1.8091580040261314e-04 0.0000000000000000e+00  0.0000000000000000e+00 0.0000000000000000e+00 0.0000000000000000e+00  7.1290124324437901e-05 1.9023135348252574e-04 0.0000000000000000e+00  0.0000000000000000e+00 0.0000000000000000e+00 0.0000000000000000e+00  1.1664893988550007e-04 2.0678296448117765e-04 0.0000000000000000e+00  0.0000000000000000e+00 0.0000000000000000e+00 0.0000000000000000e+00  1.8156349600087932e-04 2.4662871891864731e-04 0.0000000000000000e+00  0.0000000000000000e+00 0.0000000000000000e+00 0.0000000000000000e+00  2.7871976915473613e-04 -3.7178755898270040e-04 0.0000000000000000e+00  0.0000000000000000e+00 0.0000000000000000e+00 0.0000000000000000e+00  1.7004310005516165e-04 -2.6889889608359648e-04 0.0000000000000000e+00  0.0000000000000000e+00 0.0000000000000000e+00 0.0000000000000000e+00  1.1363575125345055e-04 -2.3670569741985419e-04 0.0000000000000000e+00  0.0000000000000000e+00 0.0000000000000000e+00 0.0000000000000000e+00  7.4524135715238764e-05 -2.1852974869754292e-04 0.0000000000000000e+00  0.0000000000000000e+00 0.0000000000000000e+00 0.0000000000000000e+00  4.3311443464779092e-05 -2.0495187163799473e-04 0.0000000000000000e+00  0.0000000000000000e+00 0.0000000000000000e+00 0.0000000000000000e+00  1.5989062050411029e-05 -1.9340306699719537e-04 0.0000000000000000e+00  0.0000000000000000e+00 0.0000000000000000e+00 0.0000000000000000e+00  -9.7932977143406011e-06 -1.8300952384515737e-04 0.0000000000000000e+00  0.0000000000000000e+00 0.0000000000000000e+00 0.0000000000000000e+00  -3.5943350744082735e-05 -1.7367244086097629e-04 0.0000000000000000e+00  0.0000000000000000e+00 0.0000000000000000e+00 0.0000000000000000e+00  -6.4690163037063944e-05 -1.6624641922390198e-04 0.0000000000000000e+00  0.0000000000000000e+00 0.0000000000000000e+00 0.0000000000000000e+00  -9.9524830105573504e-05 -1.6419797372604981e-04 0.0000000000000000e+00  0.0000000000000000e+00 0.0000000000000000e+00 0.0000000000000000e+00  -1.4602550895019390e-04 -1.8216717367952487e-04 0.0000000000000000e+00  -2.1610839147011260e-04 3.9299039158706157e-04 0.0000000000000000e+00  -1.4880451868486079e-04 3.6558151749158856e-04 0.0000000000000000e+00  -8.6026815794139672e-05 3.5607756329604609e-04 0.0000000000000000e+00  -3.1209499365793039e-05 3.5859060919858019e-04 0.0000000000000000e+00  2.0846431590836176e-05 3.6679476137784140e-04 0.0000000000000000e+00  7.4245814190683642e-05 3.7945377442281838e-04 0.0000000000000000e+00  1.3277243974749135e-04 3.9794435292230294e-04 0.0000000000000000e+00  2.0017673809597306e-04 4.2670819921693259e-04 0.0000000000000000e+00  2.7840494244245399e-04 4.7705568943486352e-04 0.0000000000000000e+00  4.3282980572835347e-04 -6.7356514979919724e-04 0.0000000000000000e+00  3.2436643289990384e-04 -5.6581055111314203e-04 0.0000000000000000e+00  2.3286959247804874e-04 -4.9947888311949618e-04 0.0000000000000000e+00  1.6239947076312133e-04 -4.5855460143646466e-04 0.0000000000000000e+00  1.0411425200888818e-04 -4.2846582863892863e-04 0.0000000000000000e+00  5.2577140757609739e-05 -4.0370834523845275e-04 0.0000000000000000e+00  4.2616530454895453e-06 -3.8210441826673399e-04 0.0000000000000000e+00  -4.3513964256132875e-05 -3.6302466033418906e-04 0.0000000000000000e+00  -9.3106582929920425e-05 -3.4721725979106895e-04 0.0000000000000000e+00  -1.4651172259862701e-04 -3.3793864470918749e-04 0.0000000000000000e+00  -2.0353898907416479e-04 -3.4495771296926171e-04 0.0000000000000000e+00  -2.3386342784749062e-04 5.6394388182164296e-04 0.0000000000000000e+00  -1.6570090383020519e-04 5.5582978089624999e-04 0.0000000000000000e+00  -9.5070234353414275e-05 5.5344784530135852e-04 0.0000000000000000e+00  -2.6157016128812580e-05 5.5881949772083439e-04 0.0000000000000000e+00  4.1421123232221528e-05 5.7094422582899666e-04 0.0000000000000000e+00  1.1016998460428211e-04 5.8911377734867994e-04 0.0000000000000000e+00  1.8260377268688462e-04 6.1430385828319058e-04 0.0000000000000000e+00  2.6048113541874850e-04 6.4918286057094327e-04 0.0000000000000000e+00  3.4321432847349157e-04 6.9794415425360884e-04 0.0000000000000000e+00  5.5118851491308795e-04 -9.5650628227573510e-04 0.0000000000000000e+00  4.4461800484846584e-04 -8.5313605988190683e-04 0.0000000000000000e+00  3.4378079673781181e-04 -7.7294191040832140e-04 0.0000000000000000e+00  2.5493405866483027e-04 -7.1281014353725242e-04 0.0000000000000000e+00  1.7726490225480418e-04 -6.6612731483280802e-04 0.0000000000000000e+00  1.0719075370806078e-04 -6.2741033509350916e-04 0.0000000000000000e+00  4.1585223234085049e-05 -5.9368547732989712e-04 0.0000000000000000e+00  -2.1972114230692511e-05 -5.6357326031669110e-04 0.0000000000000000e+00  -8.5193030005598208e-05 -5.3687990443042138e-04 0.0000000000000000e+00  -1.4866538435647633e-04 -5.1470330862463695e-04 0.0000000000000000e+00  -2.1034498745135148e-04 -4.9956470770162850e-04 0.0000000000000000e+00  -2.2726750639856175e-04 7.3750531359647459e-04 0.0000000000000000e+00  -1.5759088323306379e-04 7.4573063997192366e-04 0.0000000000000000e+00  -8.3727219422714068e-05 7.5341204541662171e-04 0.0000000000000000e+00  -8.2813483426643492e-06 7.6482142760909934e-04 0.0000000000000000e+00  6.7881298224978413e-05 7.8162904097149643e-04 0.0000000000000000e+00  1.4536102955564742e-04 8.0449164312868568e-04 0.0000000000000000e+00  2.2520407992452133e-04 8.3416486234140356e-04 0.0000000000000000e+00  3.0790209534796778e-04 8.7164266611265782e-04 0.0000000000000000e+00  3.9245912180150443e-04 9.1686481371846813e-04 0.0000000000000000e+00  6.5516462110641084e-04 -1.2341468838075044e-03 0.0000000000000000e+00  5.4931960214405341e-04 -1.1336049951474836e-03 0.0000000000000000e+00  4.4579645657189985e-04 -1.0462857967617435e-03 0.0000000000000000e+00  3.4880104213219989e-04 -9.7328452630682553e-04 0.0000000000000000e+00  2.5958835066673837e-04 -9.1233403970574010e-04 0.0000000000000000e+00  1.7713114006728256e-04 -8.6011638367629339e-04 0.0000000000000000e+00  9.9613479919169939e-05 -8.1381788256682484e-04 0.0000000000000000e+00  2.5431060047233073e-05 -7.7150542854428103e-04 0.0000000000000000e+00  -4.6377431496492291e-05 -7.3188480307683488e-04 0.0000000000000000e+00  -1.1566956483819405e-04 -6.9385205575831150e-04 0.0000000000000000e+00  -1.8042530022157176e-04 -6.5518839301863697e-04 0.0000000000000000e+00  -2.0504645079892568e-04 9.1601131350240307e-04 0.0000000000000000e+00  -1.3372381779858431e-04 9.3687614882251530e-04 0.0000000000000000e+00  -5.8262083502905117e-05 9.5432028424024379e-04 0.0000000000000000e+00  1.9991773287983030e-05 9.7279014282925110e-04 0.0000000000000000e+00  1.0010201899889027e-04 9.9487289235569254e-04 0.0000000000000000e+00  1.8177222674988915e-04 1.0219780059350827e-03 0.0000000000000000e+00  2.6502950261908688e-04 1.0548701203921098e-03 0.0000000000000000e+00  3.4969462023105299e-04 1.0936458986711927e-03 0.0000000000000000e+00  4.3499586656120363e-04 1.1366366677283100e-03 0.0000000000000000e+00  7.5493197750248653e-04 -1.5108094770452517e-03 0.0000000000000000e+00  6.4931755484511371e-04 -1.4099664237588619e-03 0.0000000000000000e+00  5.4518154603902080e-04 -1.3172922748183075e-03 0.0000000000000000e+00  4.4489753486879003e-04 -1.2348964481079811e-03 0.0000000000000000e+00  3.4983548803095744e-04 -1.1623502571480847e-03 0.0000000000000000e+00  2.6015409566717564e-04 -1.0978411463336748e-03 0.0000000000000000e+00  1.7525951920517943e-04 -1.0391445586632121e-03 0.0000000000000000e+00  9.4440404669449829e-05 -9.8411035821008275e-04 0.0000000000000000e+00  1.7365170440184732e-05 -9.3062646983110603e-04 0.0000000000000000e+00  -5.5545942243329927e-05 -8.7609417646340401e-04 0.0000000000000000e+00  -1.2285749746784660e-04 -8.1606791284434934e-04 0.0000000000000000e+00  -1.7243486753455622e-04 1.0995945509972356e-03 0.0000000000000000e+00  -9.9601988338592794e-05 1.1299598731689044e-03 0.0000000000000000e+00  -2.3227596803133910e-05 1.1558372491845114e-03 0.0000000000000000e+00  5.6098485558751956e-05 1.1811165990355027e-03 0.0000000000000000e+00  1.3764567812970890e-04 1.2084649651700221e-03 0.0000000000000000e+00  2.2083858336044006e-04 1.2395330003517717e-03 0.0000000000000000e+00  3.0524765268582100e-04 1.2751276085425582e-03 0.0000000000000000e+00  3.9043491070520254e-04 1.3151006809428126e-03 0.0000000000000000e+00  4.7593130137621285e-04 1.3576958612033572e-03 0.0000000000000000e+00  8.5625676978933428e-04 -1.7875362364409570e-03 0.0000000000000000e+00  7.5081364396596358e-04 -1.6836707923058279e-03 0.0000000000000000e+00  6.4686174184467736e-04 -1.5856951578259138e-03 0.0000000000000000e+00  5.4557580428962684e-04 -1.4954861939769888e-03 0.0000000000000000e+00  4.4800007509704668e-04 -1.4131761941484670e-03 0.0000000000000000e+00  3.5468477703088074e-04 -1.3376809416995043e-03 0.0000000000000000e+00  2.6573760060308598e-04 -1.2672181399743486e-03 0.0000000000000000e+00  1.8110444312323395e-04 -1.1996244319735340e-03 0.0000000000000000e+00  1.0088365432086941e-04 -1.1323535746228545e-03 0.0000000000000000e+00  2.5546601093502225e-05 -1.0620762979731747e-03 0.0000000000000000e+00  -4.4066892445948462e-05 -9.8373404041777958e-04 0.0000000000000000e+00  -1.3263818546095830e-04 1.2876694353977150e-03 0.0000000000000000e+00  -5.8507425621114661e-05 1.3251574958866520e-03 0.0000000000000000e+00  1.8474251763932171e-05 1.3579634058159000e-03 0.0000000000000000e+00  9.8115985169180858e-05 1.3892631657829542e-03 0.0000000000000000e+00  1.7991039709574922e-04 1.4214726144502830e-03 0.0000000000000000e+00  2.6328439329888865e-04 1.4562258116723895e-03 0.0000000000000000e+00  3.4770363443059117e-04 1.4943748197146025e-03 0.0000000000000000e+00  4.3271248924238090e-04 1.5358826827664674e-03 0.0000000000000000e+00  5.1807391408767401e-04 1.5795400970665724e-03 0.0000000000000000e+00  9.6244155803314961e-04 -2.0641188552362822e-03 0.0000000000000000e+00  8.5730499429458647e-04 -1.9553127885038875e-03 0.0000000000000000e+00  7.5390437354260463e-04 -1.8516113331042260e-03 0.0000000000000000e+00  6.5271444440426110e-04 -1.7542355696990679e-03 0.0000000000000000e+00  5.5443596511392502e-04 -1.6632777755675231e-03 0.0000000000000000e+00  4.5966937896672281e-04 -1.5778861505546166e-03 0.0000000000000000e+00  3.6882717973999124e-04 -1.4964980985557107e-03 0.0000000000000000e+00  2.8221122680141634e-04 -1.4169976629919740e-03 0.0000000000000000e+00  2.0014660385085639e-04 -1.3367014745878857e-03 0.0000000000000000e+00  1.2305629185065245e-04 -1.2521075168938666e-03 0.0000000000000000e+00  5.1340218250800394e-05 -1.1583824947039641e-03 0.0000000000000000e+00  -8.7637130570215259e-05 1.4795257707473947e-03 0.0000000000000000e+00  -1.2409437575511120e-05 1.5224095143867439e-03 0.0000000000000000e+00  6.5047368706043184e-05 1.5607761591987556e-03 0.0000000000000000e+00  1.4472651802177050e-04 1.5971620078661247e-03 0.0000000000000000e+00  2.2629824205285266e-04 1.6336525916942363e-03 0.0000000000000000e+00  3.0929507617751770e-04 1.6717729507301291e-03 0.0000000000000000e+00  3.9324200497303292e-04 1.7124251691391049e-03 0.0000000000000000e+00  4.7776873627196082e-04 1.7558218619021717e-03 0.0000000000000000e+00  5.6278445544698198e-04 1.8014329487518110e-03 0.0000000000000000e+00  1.0752527774027811e-03 -2.3399260860054233e-03 0.0000000000000000e+00  9.7062116341374777e-04 -2.2250195398149210e-03 0.0000000000000000e+00  8.6796725573260554e-04 -2.1151772550152595e-03 0.0000000000000000e+00  7.6739282873531560e-04 -2.0109006474308268e-03 0.0000000000000000e+00  6.6933478475709909e-04 -1.9119968028800120e-03 0.0000000000000000e+00  5.7431728802116234e-04 -1.8175848989777010e-03 0.0000000000000000e+00  4.8283075322221204e-04 -1.7261664954448502e-03 0.0000000000000000e+00  3.9530978669550853e-04 -1.6356808259043523e-03 0.0000000000000000e+00  3.1215104736816434e-04 -1.5434837217947809e-03 0.0000000000000000e+00  2.3369225018626366e-04 -1.4462190910866331e-03 0.0000000000000000e+00  1.6005824412515174e-04 -1.3396173789369788e-03 0.0000000000000000e+00  -3.8688843003282604e-05 1.6745490050777000e-03 0.0000000000000000e+00  3.7476879550557629e-05 1.7215784265133974e-03 0.0000000000000000e+00  1.1535924641857637e-04 1.7643564524085337e-03 0.0000000000000000e+00  1.9501989643144394e-04 1.8049250111989025e-03 0.0000000000000000e+00  2.7625487941601779e-04 1.8450705848884659e-03 0.0000000000000000e+00  3.5872180325499333e-04 1.8861990533948702e-03 0.0000000000000000e+00  4.4205788621417386e-04 1.9292653116603803e-03 0.0000000000000000e+00  5.2600030933249060e-04 1.9747471219098323e-03 0.0000000000000000e+00  6.1053740261630832e-04 2.0227045227178284e-03 0.0000000000000000e+00  1.1954710792104379e-03 -2.6142572818565607e-03 0.0000000000000000e+00  1.0915419917490600e-03 -2.4926953468728768e-03 0.0000000000000000e+00  9.8974874092431033e-04 -2.3764804706719492e-03 0.0000000000000000e+00  8.9001703917741012e-04 -2.2654763233993162e-03 0.0000000000000000e+00  7.9260375323326007e-04 -2.1591408155406406e-03 0.0000000000000000e+00  6.9792302738079547e-04 -2.0564510266172470e-03 0.0000000000000000e+00  6.0643186288350602e-04 -1.9558898294401131e-03 0.0000000000000000e+00  5.1856742785145798e-04 -1.8554472820434486e-03 0.0000000000000000e+00  4.3470546351867610e-04 -1.7526031277686185e-03 0.0000000000000000e+00  3.5509345880779000e-04 -1.6442840486718226e-03 0.0000000000000000e+00  2.7970668052049305e-04 -1.5268456127109844e-03 0.0000000000000000e+00  1.3359213754263588e-05 1.8722777694564570e-03 0.0000000000000000e+00  9.0349590176716022e-05 1.9225236208495983e-03 0.0000000000000000e+00  1.6864639116600559e-04 1.9687697356338693e-03 0.0000000000000000e+00  2.4832392543310818e-04 2.0127088575683616e-03 0.0000000000000000e+00  3.2926163418134119e-04 2.0558959280238460e-03 0.0000000000000000e+00  4.1122688317844292e-04 2.0996395623834323e-03 0.0000000000000000e+00  4.9396808558910146e-04 2.1449449289443327e-03 0.0000000000000000e+00  5.7731588339942903e-04 2.1925148536936778e-03 0.0000000000000000e+00  6.6129383938042083e-04 2.2428464072768791e-03 0.0000000000000000e+00  1.3232459560863386e-03 -2.8864863911712987e-03 0.0000000000000000e+00  1.2201890786370133e-03 -2.7581609503980011e-03 0.0000000000000000e+00  1.1193253925725747e-03 -2.6355634828820968e-03 0.0000000000000000e+00  1.0205151959897100e-03 -2.5180473039355541e-03 0.0000000000000000e+00  9.2390062545372588e-04 -2.4047426266725087e-03 0.0000000000000000e+00  8.2978975137448655e-04 -2.2944545241305025e-03 0.0000000000000000e+00  7.3856177702856616e-04 -2.1856138261625632e-03 0.0000000000000000e+00  6.5059459067813422e-04 -2.0762556944139143e-03 0.0000000000000000e+00  5.6620076074068160e-04 -1.9640105944900609e-03 0.0000000000000000e+00  4.8554862760613246e-04 -1.8461134545872746e-03 0.0000000000000000e+00  4.0854607888399989e-04 -1.7194752927453265e-03 0.0000000000000000e+00  6.7878394390898388e-05 2.0723948527821916e-03 0.0000000000000000e+00  1.4561832724436672e-04 2.1251301535061850e-03 0.0000000000000000e+00  2.2433457474939269e-04 2.1740637550296464e-03 0.0000000000000000e+00  3.0409136352114552e-04 2.2206578298428702e-03 0.0000000000000000e+00  3.8482072820395744e-04 2.2663045381764971e-03 0.0000000000000000e+00  4.6637407962428040e-04 2.3122438713844887e-03 0.0000000000000000e+00  5.4858947442519275e-04 2.3595242633068269e-03 0.0000000000000000e+00  6.3136649828956246e-04 2.4090174126586389e-03 0.0000000000000000e+00  7.1473891706520408e-04 2.4615124560778195e-03 0.0000000000000000e+00  1.4583300065822652e-03 -3.1561087808798568e-03 0.0000000000000000e+00  1.3562792593084239e-03 -3.0212260761161005e-03 0.0000000000000000e+00  1.2563865451123157e-03 -2.8924401448037333e-03 0.0000000000000000e+00  1.1585039836520606e-03 -2.7687213645440824e-03 0.0000000000000000e+00  1.0627043418023087e-03 -2.6489274607305797e-03 0.0000000000000000e+00  9.6920684188715766e-04 -2.5317028763817955e-03 0.0000000000000000e+00  8.7830396468116946e-04 -2.4154206781193443e-03 0.0000000000000000e+00  7.9029416975192072e-04 -2.2981555276122704e-03 0.0000000000000000e+00  7.0541629156356165e-04 -2.1776830568499203e-03 0.0000000000000000e+00  6.2377673883729325e-04 -2.0515150864092117e-03 0.0000000000000000e+00  5.4526435208822549e-04 -1.9170024593526559e-03 0.0000000000000000e+00  1.2434784000067323e-04 2.2746963759883313e-03 0.0000000000000000e+00  2.0279061943765043e-04 2.3293145968704752e-03 0.0000000000000000e+00  2.8193643104455833e-04 2.3802712626125916e-03 0.0000000000000000e+00  3.6183315987662706e-04 2.4288849012009716e-03 0.0000000000000000e+00  4.4244456386997237e-04 2.4764413055255443e-03 0.0000000000000000e+00  5.2368104670029491e-04 2.5241367328912253e-03 0.0000000000000000e+00  6.0544509850714583e-04 2.5730537918470199e-03 0.0000000000000000e+00  6.8768205309859378e-04 2.6241803866837044e-03 0.0000000000000000e+00  7.7042368405370648e-04 2.6784855151720014e-03 0.0000000000000000e+00  1.6002334232304940e-03 -3.4227434817394493e-03 0.0000000000000000e+00  1.4992884231310951e-03 -3.2817226116056818e-03 0.0000000000000000e+00  1.4003905963517664e-03 -3.1471094192580930e-03 0.0000000000000000e+00  1.3034098258817852e-03 -3.0176005293804805e-03 0.0000000000000000e+00  1.2083790242989993e-03 -2.8918434106120789e-03 0.0000000000000000e+00  1.1154484215724072e-03 -2.7683498950932519e-03 0.0000000000000000e+00  1.0248316794628988e-03 -2.6454423893243744e-03 0.0000000000000000e+00  9.3674981822732743e-04 -2.5212293661975634e-03 0.0000000000000000e+00  8.5137392883799273e-04 -2.3936107596962972e-03 0.0000000000000000e+00  7.6876595156012120e-04 -2.2603220141355551e-03 0.0000000000000000e+00  6.8882093544857595e-04 -2.1190363145790841e-03 0.0000000000000000e+00  1.8229337523048295e-04 2.4790589499140672e-03 0.0000000000000000e+00  2.6141165500674602e-04 2.5350211861497850e-03 0.0000000000000000e+00  3.4099721477129266e-04 2.5874136854476047e-03 0.0000000000000000e+00  4.2108255498191424e-04 2.6374704006291902e-03 0.0000000000000000e+00  5.0164971399411736e-04 2.6864119460887881e-03 0.0000000000000000e+00  5.8264781172479518e-04 2.7354090736220180e-03 0.0000000000000000e+00  6.6402201129345825e-04 2.7855695025287481e-03 0.0000000000000000e+00  7.4574553362641586e-04 2.8379556283358001e-03 0.0000000000000000e+00  8.2784359246730350e-04 2.8936389770287392e-03 0.0000000000000000e+00  1.7483242481078395e-03 -3.6861168256902030e-03 0.0000000000000000e+00  1.6485556518731907e-03 -3.5395159717360081e-03 0.0000000000000000e+00  1.5506655375917798e-03 -3.3995641641276324e-03 0.0000000000000000e+00  1.4545502518656256e-03 -3.2647702481688476e-03 0.0000000000000000e+00  1.3602211513342461e-03 -3.1336281433406343e-03 0.0000000000000000e+00  1.2677775772273420e-03 -3.0045484287134316e-03 0.0000000000000000e+00  1.1773686639707864e-03 -2.8758141892477472e-03 0.0000000000000000e+00  1.0891497601039103e-03 -2.7455619113460712e-03 0.0000000000000000e+00  1.0032368588377950e-03 -2.6117901091077017e-03 0.0000000000000000e+00  9.1966225962590066e-04 -2.4724021596524296e-03 0.0000000000000000e+00  8.3833810911173928e-04 -2.3252934848750949e-03 0.0000000000000000e+00  2.4125622951563241e-04 2.6854123128584794e-03 0.0000000000000000e+00  3.2103501918841665e-04 2.74221508