<?xml version="1.0"?>
<VTKFile type="UnstructuredGrid"  version="0.1"  >
<UnstructuredGrid>
<Piece  NumberOfPoints="5319" NumberOfCells="9708">
<Points>
<DataArray  type="Float64"  NumberOfComponents="3"  format="ascii">0 1 0  0 0.9916666666666667 0  0.008333333333333333 1 0  0.008333333333333333 0.9916666666666667 0  0.01666666666666667 1 0  0.01666666666666667 0.9916666666666667 0  0.025 1 0  0.025 0.9916666666666667 0  0.03333333333333333 1 0  0.03333333333333333 0.9916666666666667 0  0.04166666666666666 1 0  0.04166666666666666 0.9916666666666667 0  0.05 1 0  0.05 0.9916666666666667 0  0.05833333333333333 1 0  0.05833333333333333 0.9916666666666667 0  0.06666666666666667 1 0  0.06666666666666667 0.9916666666666667 0  0.25 1 0  0.25 0.9916666666666667 0  0.2583333333333334 1 0  0.2583333333333334 0.9916666666666667 0  0.2666666666666667 1 0  0.2666666666666667 0.9916666666666667 0  0.275 1 0  0.275 0.9916666666666667 0  0.2833333333333333 1 0  0.2833333333333333 0.9916666666666667 0  0.2916666666666667 1 0  0.2916666666666667 0.9916666666666667 0  0.3 1 0  0.3 0.9916666666666667 0  0.3083333333333333 1 0  0.3083333333333333 0.9916666666666667 0  0.3166666666666667 1 0  0.3166666666666667 0.9916666666666667 0  0.325 1 0  0.325 0.9916666666666667 0  0.3333333333333333 1 0  0.3333333333333333 0.9916666666666667 0  0 0.9833333333333333 0  0.008333333333333333 0.9833333333333333 0  0.01666666666666667 0.9833333333333333 0  0.025 0.9833333333333333 0  0.03333333333333333 0.9833333333333333 0  0.04166666666666666 0.9833333333333333 0  0.05 0.9833333333333333 0  0.05833333333333333 0.9833333333333333 0  0.06666666666666667 0.9833333333333333 0  0.25 0.9833333333333333 0  0.2583333333333334 0.9833333333333333 0  0.2666666666666667 0.9833333333333333 0  0.275 0.9833333333333333 0  0.2833333333333333 0.9833333333333333 0  0.2916666666666667 0.9833333333333333 0  0.3 0.9833333333333333 0  0.3083333333333333 0.9833333333333333 0  0.3166666666666667 0.9833333333333333 0  0.325 0.9833333333333333 0  0.3333333333333333 0.9833333333333333 0  0 0.975 0  0.008333333333333333 0.975 0  0.01666666666666667 0.975 0  0.025 0.975 0  0.03333333333333333 0.975 0  0.04166666666666666 0.975 0  0.05 0.975 0  0.05833333333333333 0.975 0  0.06666666666666667 0.975 0  0.25 0.975 0  0.2583333333333334 0.975 0  0.2666666666666667 0.975 0  0.275 0.975 0  0.2833333333333333 0.975 0  0.2916666666666667 0.975 0  0.3 0.975 0  0.3083333333333333 0.975 0  0.3166666666666667 0.975 0  0.325 0.975 0  0.3333333333333333 0.975 0  0 0.9666666666666667 0  0.008333333333333333 0.9666666666666667 0  0.01666666666666667 0.9666666666666667 0  0.025 0.9666666666666667 0  0.03333333333333333 0.9666666666666667 0  0.04166666666666666 0.9666666666666667 0  0.05 0.9666666666666667 0  0.05833333333333333 0.9666666666666667 0  0.06666666666666667 0.9666666666666667 0  0.25 0.9666666666666667 0  0.2583333333333334 0.9666666666666667 0  0.2666666666666667 0.9666666666666667 0  0.275 0.9666666666666667 0  0.2833333333333333 0.9666666666666667 0  0.2916666666666667 0.9666666666666667 0  0.3 0.9666666666666667 0  0.3083333333333333 0.9666666666666667 0  0.3166666666666667 0.9666666666666667 0  0.325 0.9666666666666667 0  0.3333333333333333 0.9666666666666667 0  0 0.9583333333333334 0  0.008333333333333333 0.9583333333333334 0  0.01666666666666667 0.9583333333333334 0  0.025 0.9583333333333334 0  0.03333333333333333 0.9583333333333334 0  0.04166666666666666 0.9583333333333334 0  0.05 0.9583333333333334 0  0.05833333333333333 0.9583333333333334 0  0.06666666666666667 0.9583333333333334 0  0.25 0.9583333333333334 0  0.2583333333333334 0.9583333333333334 0  0.2666666666666667 0.9583333333333334 0  0.275 0.9583333333333334 0  0.2833333333333333 0.9583333333333334 0  0.2916666666666667 0.9583333333333334 0  0.3 0.9583333333333334 0  0.3083333333333333 0.9583333333333334 0  0.3166666666666667 0.9583333333333334 0  0.325 0.9583333333333334 0  0.3333333333333333 0.9583333333333334 0  0 0.95 0  0.008333333333333333 0.95 0  0.01666666666666667 0.95 0  0.025 0.95 0  0.03333333333333333 0.95 0  0.04166666666666666 0.95 0  0.05 0.95 0  0.05833333333333333 0.95 0  0.06666666666666667 0.95 0  0.25 0.95 0  0.2583333333333334 0.95 0  0.2666666666666667 0.95 0  0.275 0.95 0  0.2833333333333333 0.95 0  0.2916666666666667 0.95 0  0.3 0.95 0  0.3083333333333333 0.95 0  0.3166666666666667 0.95 0  0.325 0.95 0  0.3333333333333333 0.95 0  0 0.9416666666666667 0  0.008333333333333333 0.9416666666666667 0  0.01666666666666667 0.9416666666666667 0  0.025 0.9416666666666667 0  0.03333333333333333 0.9416666666666667 0  0.04166666666666666 0.9416666666666667 0  0.05 0.9416666666666667 0  0.05833333333333333 0.9416666666666667 0  0.06666666666666667 0.9416666666666667 0  0.25 0.9416666666666667 0  0.2583333333333334 0.9416666666666667 0  0.2666666666666667 0.9416666666666667 0  0.275 0.9416666666666667 0  0.2833333333333333 0.9416666666666667 0  0.2916666666666667 0.9416666666666667 0  0.3 0.9416666666666667 0  0.3083333333333333 0.9416666666666667 0  0.3166666666666667 0.9416666666666667 0  0.325 0.9416666666666667 0  0.3333333333333333 0.9416666666666667 0  0 0.9333333333333333 0  0.008333333333333333 0.9333333333333333 0  0.01666666666666667 0.9333333333333333 0  0.025 0.9333333333333333 0  0.03333333333333333 0.9333333333333333 0  0.04166666666666666 0.9333333333333333 0  0.05 0.9333333333333333 0  0.05833333333333333 0.9333333333333333 0  0.06666666666666667 0.9333333333333333 0  0.25 0.9333333333333333 0  0.2583333333333334 0.9333333333333333 0  0.2666666666666667 0.9333333333333333 0  0.275 0.9333333333333333 0  0.2833333333333333 0.9333333333333333 0  0.2916666666666667 0.9333333333333333 0  0.3 0.9333333333333333 0  0.3083333333333333 0.9333333333333333 0  0.3166666666666667 0.9333333333333333 0  0.325 0.9333333333333333 0  0.3333333333333333 0.9333333333333333 0  0 0.925 0  0.008333333333333333 0.925 0  0.01666666666666667 0.925 0  0.025 0.925 0  0.03333333333333333 0.925 0  0.04166666666666666 0.925 0  0.05 0.925 0  0.05833333333333333 0.925 0  0.06666666666666667 0.925 0  0.25 0.925 0  0.2583333333333334 0.925 0  0.2666666666666667 0.925 0  0.275 0.925 0  0.2833333333333333 0.925 0  0.2916666666666667 0.925 0  0.3 0.925 0  0.3083333333333333 0.925 0  0.3166666666666667 0.925 0  0.325 0.925 0  0.3333333333333333 0.925 0  0 0.9166666666666666 0  0.008333333333333333 0.9166666666666666 0  0.01666666666666667 0.9166666666666666 0  0.025 0.9166666666666666 0  0.03333333333333333 0.9166666666666666 0  0.04166666666666666 0.9166666666666666 0  0.05 0.9166666666666666 0  0.05833333333333333 0.9166666666666666 0  0.06666666666666667 0.9166666666666666 0  0.25 0.9166666666666666 0  0.2583333333333334 0.9166666666666666 0  0.2666666666666667 0.9166666666666666 0  0.275 0.9166666666666666 0  0.2833333333333333 0.9166666666666666 0  0.2916666666666667 0.9166666666666666 0  0.3 0.9166666666666666 0  0.3083333333333333 0.9166666666666666 0  0.3166666666666667 0.9166666666666666 0  0.325 0.9166666666666666 0  0.3333333333333333 0.9166666666666666 0  0 0.9083333333333333 0  0.008333333333333333 0.9083333333333333 0  0.01666666666666667 0.9083333333333333 0  0.025 0.9083333333333333 0  0.03333333333333333 0.9083333333333333 0  0.04166666666666666 0.9083333333333333 0  0.05 0.9083333333333333 0  0.05833333333333333 0.9083333333333333 0  0.06666666666666667 0.9083333333333333 0  0.25 0.9083333333333333 0  0.2583333333333334 0.9083333333333333 0  0.2666666666666667 0.9083333333333333 0  0.275 0.9083333333333333 0  0.2833333333333333 0.9083333333333333 0  0.2916666666666667 0.9083333333333333 0  0.3 0.9083333333333333 0  0.3083333333333333 0.9083333333333333 0  0.3166666666666667 0.9083333333333333 0  0.325 0.9083333333333333 0  0.3333333333333333 0.9083333333333333 0  0 0.9 0  0.008333333333333333 0.9 0  0.01666666666666667 0.9 0  0.025 0.9 0  0.03333333333333333 0.9 0  0.04166666666666666 0.9 0  0.05 0.9 0  0.05833333333333333 0.9 0  0.06666666666666667 0.9 0  0.25 0.9 0  0.2583333333333334 0.9 0  0.2666666666666667 0.9 0  0.275 0.9 0  0.2833333333333333 0.9 0  0.2916666666666667 0.9 0  0.3 0.9 0  0.3083333333333333 0.9 0  0.3166666666666667 0.9 0  0.325 0.9 0  0.3333333333333333 0.9 0  0 0.8916666666666667 0  0.008333333333333333 0.8916666666666667 0  0.01666666666666667 0.8916666666666667 0  0.025 0.8916666666666667 0  0.03333333333333333 0.8916666666666667 0  0.04166666666666666 0.8916666666666667 0  0.05 0.8916666666666667 0  0.05833333333333333 0.8916666666666667 0  0.06666666666666667 0.8916666666666667 0  0.25 0.8916666666666667 0  0.2583333333333334 0.8916666666666667 0  0.2666666666666667 0.8916666666666667 0  0.275 0.8916666666666667 0  0.2833333333333333 0.8916666666666667 0  0.2916666666666667 0.8916666666666667 0  0.3 0.8916666666666667 0  0.3083333333333333 0.8916666666666667 0  0.3166666666666667 0.8916666666666667 0  0.325 0.8916666666666667 0  0.3333333333333333 0.8916666666666667 0  0 0.8833333333333333 0  0.008333333333333333 0.8833333333333333 0  0.01666666666666667 0.8833333333333333 0  0.025 0.8833333333333333 0  0.03333333333333333 0.8833333333333333 0  0.04166666666666666 0.8833333333333333 0  0.05 0.8833333333333333 0  0.05833333333333333 0.8833333333333333 0  0.06666666666666667 0.8833333333333333 0  0.25 0.8833333333333333 0  0.2583333333333334 0.8833333333333333 0  0.2666666666666667 0.8833333333333333 0  0.275 0.8833333333333333 0  0.2833333333333333 0.8833333333333333 0  0.2916666666666667 0.8833333333333333 0  0.3 0.8833333333333333 0  0.3083333333333333 0.8833333333333333 0  0.3166666666666667 0.8833333333333333 0  0.325 0.8833333333333333 0  0.3333333333333333 0.8833333333333333 0  0 0.875 0  0.008333333333333333 0.875 0  0.01666666666666667 0.875 0  0.025 0.875 0  0.03333333333333333 0.875 0  0.04166666666666666 0.875 0  0.05 0.875 0  0.05833333333333333 0.875 0  0.06666666666666667 0.875 0  0.25 0.875 0  0.2583333333333334 0.875 0  0.2666666666666667 0.875 0  0.275 0.875 0  
[...]
<PointData  Scalars="f_124"> 
<DataArray  type="Float64"  Name="f_124"  format="ascii">6.1210853964695569e-02  6.2600472888104247e-02  4.4031124750591816e-02  5.6779750648373400e-02  4.3909547495902368e-02  5.0392659716043078e-02  4.3501552643872850e-02  4.9240659244886527e-02  4.4817004448115490e-02  5.0072836720301321e-02  4.7479056407313508e-02  5.2288882394447962e-02  5.2415074430261201e-02  5.6296068259522526e-02  6.4618667002231275e-02  6.1707135821289873e-02  8.1713030365943171e-02  6.9406781732599510e-02  1.0385737314989814e-01  1.0614498449977945e-01  6.8098370998711036e-02  8.9700320111081464e-02  6.2354845032614258e-02  7.2357280773647850e-02  5.5850015073686428e-02  6.4131911468137820e-02  5.1700777898252961e-02  5.8777986772190642e-02  4.8471677607754927e-02  5.4770104841913345e-02  4.6101640427146616e-02  5.1872439647276489e-02  4.4731379702696333e-02  4.9946332148091598e-02  4.5311499575781143e-02  4.9291911971730600e-02  5.1491954427013882e-02  4.9090850142987884e-02  6.1016957112516229e-02  5.1370635613998343e-02  5.1713131697060440e-02  5.6261478930841144e-02  5.6731451236299503e-02  5.6316994366494122e-02  5.7195993087360675e-02  5.9313531301919825e-02  6.2466029293670573e-02  6.6172620395297740e-02  6.8029328342391712e-02  8.6384540105996555e-02  8.6386050594071173e-02  7.9742497356685219e-02  7.2026338297021819e-02  6.6094884143803767e-02  6.1629892168477286e-02  5.8261812887869982e-02  5.5742836453845361e-02  5.3853378920785615e-02  5.1918852901249889e-02  4.7505252701349199e-02  5.2376705490298846e-02  5.7364996124549705e-02  5.9622802620516273e-02  6.0348257829199808e-02  6.1416398552449736e-02  6.3047015247283081e-02  6.5069239292890074e-02  6.6797934884100976e-02  6.6172191728881405e-02  8.4666451053207914e-02  8.5858717185387762e-02  8.2192783598031782e-02  7.6474633527230065e-02  7.1196463032559928e-02  6.6757514413905220e-02  6.3068696086849951e-02  5.9900602725179192e-02  5.6926626614626934e-02  5.3113829986143897e-02  4.6971120893017394e-02  5.3606571085467347e-02  5.7524812780114370e-02  6.0542197755099940e-02  6.2355297235855672e-02  6.3766730165421670e-02  6.5119889189853147e-02  6.6422459190562055e-02  6.7199635153702447e-02  6.6619487925733897e-02  8.3899347500324128e-02  8.4067259402561267e-02  8.2028511138998492e-02  7.8440880039777519e-02  7.4272057764607241e-02  7.0187170377331132e-02  6.6420254135991438e-02  6.2838216904921571e-02  5.9137176880286003e-02  5.4488923343225644e-02  4.8411305728214574e-02  5.5132856038924927e-02  5.8201865328156632e-02  6.1109913845985145e-02  6.3127686983663500e-02  6.4667549589604925e-02  6.5884627224771702e-02  6.6806620604131228e-02  6.7252582886904333e-02  6.6944211418927105e-02  8.3827833675556462e-02  8.3320870501104288e-02  8.1708593505754004e-02  7.8999407060633700e-02  7.5659284087564463e-02  7.2075576956449020e-02  6.8437632497167208e-02  6.4702495297419130e-02  6.0676904357432636e-02  5.5835906218880217e-02  5.0242260174703235e-02  5.6563015642688383e-02  5.8872082051783597e-02  6.1363122274808148e-02  6.3301287096045836e-02  6.4829857165897703e-02  6.5960058573719005e-02  6.6732307550587636e-02  6.7146774740779624e-02  6.7253421531947105e-02  8.3835848727671483e-02  8.2711344001582296e-02  8.1070920203522925e-02  7.8821514639741561e-02  7.6054474207398720e-02  7.2911516948035160e-02  6.9504784856312285e-02  6.5832184438220115e-02  6.1803880900586881e-02  5.7160941839138266e-02  5.2273023726986730e-02  5.7784338838500482e-02  5.9524062301930379e-02  6.1568859883370401e-02  6.3278392564660182e-02  6.4672760534752446e-02  6.5712372412410708e-02  6.6436305711052510e-02  6.6928900836197749e-02  6.7346377645430111e-02  8.3688785690579512e-02  8.2165325123001134e-02  8.0416370074212609e-02  7.8368498178450749e-02  7.5925782692747898e-02  7.3115163443253348e-02  6.9974225194138318e-02  6.6501861192354628e-02  6.2680929500670654e-02  5.8439649554354309e-02  5.4255332086567770e-02  5.8807291649092625e-02  6.0129414736193362e-02  6.1765367053660099e-02  6.3203792012349533e-02  6.4422060081583188e-02  6.5364481410026903e-02  6.6065890317865597e-02  6.6633926831087417e-02  6.7235205307812088e-02  8.3335484233124688e-02  8.1594463860358929e-02  7.9742943682535219e-02  7.7787067792458697e-02  7.5550496404031026e-02  7.3000659709053131e-02  7.0125830768442032e-02  6.6924439936953461e-02  6.3423299249154561e-02  5.9656197761743683e-02  5.6100011972872149e-02  5.9672197431538787e-02  6.0686230783949136e-02  6.1978674833497789e-02  6.3155107548543601e-02  6.4186154020155456e-02  6.5019265211901725e-02  6.5685832035430713e-02  6.6284643054301373e-02  6.6954150496344733e-02  8.2782558616129168e-02  8.0964633062851593e-02  7.9067612445931468e-02  7.7178190717186068e-02  7.5092884700360685e-02  7.2758372201003382e-02  7.0140550578831659e-02  6.7238500396370485e-02  6.4099946386862242e-02  6.0806054798313684e-02  5.7778786324721020e-02  6.0424273600641218e-02  6.1203080975934937e-02  6.2212695418929424e-02  6.3151927469570490e-02  6.4000017655569619e-02  6.4714189826240970e-02  6.5321531799748825e-02  6.5898788261442964e-02  6.6551859798870600e-02  8.2062071012982518e-02  8.0269432171445554e-02  7.8391516395743044e-02  7.6578852526670724e-02  7.4630252512274300e-02  7.2492212439914536e-02  7.0123450607238264e-02  6.7524749953979793e-02  6.4750447994330482e-02  6.1894088540512107e-02  5.9302997512035091e-02  6.1101625055111866e-02  6.1690573651535678e-02  6.2465035357198176e-02  6.3193871153183673e-02  6.3868208885995176e-02  6.4455368859648310e-02  6.4978114215856170e-02  6.5489142672461781e-02  6.6070123957741880e-02  8.1211554564395272e-02  7.9514799409514697e-02  7.7714421069472336e-02  7.6004335392990938e-02  7.4198773464464435e-02  7.2252919323746612e-02  7.0126796394361035e-02  6.7823420190399469e-02  6.5395119810206778e-02  6.2930147677792606e-02  6.0700078592662583e-02  6.1732494082013457e-02  6.2158301112779861e-02  6.2731470219676802e-02  6.3272221496657788e-02  6.3781739064403764e-02  6.4235616315897082e-02  6.4652828055704659e-02  6.5064781511529168e-02  6.5540264033731033e-02  8.0265573431265683e-02  7.8711697986493773e-02  7.7036123181133981e-02  7.5457308561407255e-02  7.3809413458268538e-02  7.2058979319989350e-02  7.0171027101841865e-02  6.8150448510101339e-02  6.6043147391130277e-02  6.3925623697160136e-02  6.2000954173106033e-02  6.2336141523684510e-02  6.2613631245923465e-02  6.3007867214106839e-02  6.3376931998835401e-02  6.3728649852119887e-02  6.4044625526193763e-02  6.4340885064144371e-02  6.4631781290951720e-02  6.4983286734447171e-02  7.9252616794497271e-02  7.7871778813824080e-02  7.6356704681787055e-02  7.4935133058752351e-02  7.3461278293535617e-02  7.1912395435232701e-02  7.0259418786186967e-02  6.8508548969779814e-02  6.6697663251584438e-02  6.4891208085872468e-02  6.3233453984075663e-02  6.2924857656379327e-02  6.3061690747668001e-02  6.3290884735094921e-02  6.3499321412628790e-02  6.3698103947781498e-02  6.3872927011562594e-02  6.4037790221821642e-02  6.4194010915338218e-02  6.4412260729208179e-02  7.8194570368679023e-02  7.7005384288428944e-02  7.5676458690247708e-02  7.4433267346133813e-02  7.3148262479903886e-02  7.1807385046534791e-02  7.0387056104259230e-02  6.8894265244536873e-02  6.7358881449012920e-02  6.5835859732236976e-02  6.4419899501066885e-02  6.3506025354041346e-02  6.3505786777671699e-02  6.3578074462370751e-02  6.3632839291900181e-02  6.3681770972233875e-02  6.3713264811021825e-02  6.3740124162646628e-02  6.3753811672705885e-02  6.3834745942775120e-02  7.7107389422656145e-02  7.6120832806885433e-02  7.4995724982999029e-02  7.3946961599642744e-02  7.2862819032544962e-02  7.1735561586756910e-02  7.0546150250613143e-02  6.9302002979512556e-02  6.8025812048435108e-02  6.6766523251620399e-02  6.5576868579645356e-02  6.4083811786682307e-02  6.3947914208155321e-02  6.3867764502175517e-02  6.3772959071985949e-02  6.3673847943593542e-02  6.3560622891932123e-02  6.3445556145855925e-02  6.3312517094573417e-02  6.3254795288150548e-02  7.6002203243161551e-02  7.5224379257005522e-02  7.4314795070067122e-02  7.3472014291888002e-02  7.2597795826766343e-02  7.1688549795976317e-02  7.0728759270784355e-02  6.9726079276073952e-02  6.8697144397024235e-02  6.7688274777172056e-02  6.6715969668415545e-02  6.4660403851348719e-02  6.4389197550837524e-02  6.4158877840210918e-02  6.3916759704211484e-02  6.3670582142716758e-02  6.3411794176761627e-02  6.3152625755983433e-02  6.2870837552336731e-02  6.2674382063839865e-02  7.4886463726323710e-02  7.4320485674781056e-02  7.3633877514580767e-02  7.3005029363857332e-02  7.2347198988076636e-02  7.1659157094905820e-02  7.0928022232259316e-02  7.0161625188716562e-02  6.9371651909721499e-02  6.8604643995119341e-02  6.7844924656609656e-02  6.5236841083708683e-02  6.4830222675849689e-02  6.4450757434043104e-02  6.4062468719444973e-02  6.3669700434599658e-02  6.3264864158907322e-02  6.2860482690517777e-02  6.2429117950247193e-02  6.2094330829839173e-02  7.3764959537084493e-02  7.3412192497783010e-02  7.2953100276178393e-02  7.2543425287223864e-02  7.2106375804062636e-02  7.1641726568225969e-02  7.1138541191198917e-02  7.0604847391360429e-02  7.0048339236201615e-02  6.9517974695741058e-02  6.8968620776128378e-02  6.5813541686558744e-02  6.5271263442628485e-02  6.4743024328112186e-02  6.4209075688226952e-02  6.3669913557338462e-02  6.3118767434912001e-02  6.2568669044523184e-02  6.1987502770421164e-02  6.1514884203271190e-02  7.2640633308419522e-02  7.2501482877112264e-02  7.2272528836719807e-02  7.2085332261588364e-02  7.1871913417318120e-02  7.1632078506759470e-02  7.1356338300271424e-02  7.1052980686484760e-02  7.0726464900839295e-02  7.0429752436328555e-02  7.0089988304164783e-02  6.6390615115045112e-02  6.5712425612103179e-02  6.5035473484696071e-02  6.4356044430557049e-02  6.3670543614245775e-02  6.2972958587184324e-02  6.2276961301036743e-02  6.1546035095256531e-02  6.0936024066366584e-02  7.1515199856227743e-02  7.1589592882592534e-02  7.1592187052266984e-02  7.1629452099308794e-02  7.1641423876402197e-02  7.1627277029909869e-02  7.1578632061949907e-02  7.1504114129230203e-02  7.1405509614619889e-02  7.1340871235059458e-02  7.1210671468691977e-02  6.6968036274597950e-02  6.6153732391911677e-02  6.5328002685608413e-02  6.4503116251875825e-02  6.3671268807388187e-02  6.2827189706172085e-02  6.1985266044292921e-02  6.1104712565521226e-02  6.0357640295616112e-02  7.0389591080395886e-02  7.0677254150414398e-02  7.0912074732106853e-02  7.1174919152358115e-02  7.1413307238949536e-02  7.1625351624864705e-02  7.1803566795853466e-02  7.1956989270444457e-02  7.2085128011314281e-02  7.2251835635813208e-02  7.2331509958103862e-02  6.7545735402317619e-02  6.6595171921241772e-02  6.5620566888341475e-02  6.4650184261380861e-02  6.3671960643589209e-02  6.2681370628918917e-02  6.1693556095828966e-02  6.0663516739076391e-02  5.9779610585619855e-02  6.9264262446559213e-02  6.9764872464820840e-02  7.0232180216170878e-02  7.0721179754854105e-02  7.1186537070201505e-02  7.1625037721817761e-02  7.2029960606740606e-02  7.2410816378208731e-02  7.2765101223796369e-02  7.3162905440599141e-02  7.3452867045446193e-02  6.8123639678853806e-02  6.7036721550621473e-02  6.5913150557762618e-02  6.4797217937259149e-02  6.3672586641365062e-02  6.2535486848592753e-02  6.1401834085464096e-02  6.0222427015394361e-02  5.9201832149054993e-02  6.8139395499971694e-02  6.8852652819429885e-02  6.9552488314438637e-02  7.0267895909552666e-02  7.0960485335923099e-02  7.1625562163309259e-02  7.2257097768663833e-02  7.2865125659300478e-02  7.3445297320482369e-02  7.4074194556357748e-02  7.4574842772943128e-02  6.8701689094308099e-02  6.7478358879239017e-02  6.6205751862504256e-02  6.4944220672258385e-02  6.3673155954940469e-02  6.2389554612488324e-02  6.1110113245334191e-02  5.9781426194415184e-02  5.8624229590498220e-02  6.7015026049327284e-02  6.7940683159132029e-02  6.8872984712899626e-02  6.9814872756193386e-02  7.0734789016809657e-02  7.1626478779182573e-02  7.2484570473329749e-02  7.3319655580478954e-02  7.4125641199848866e-02  7.4985735505161702e-02  7.5697405803100762e-02  6.9279839799448698e-02  6.7920065780085345e-02  6.6498374247537254e-02  6.5091207622241895e-02  6.3673691307317801e-02  6.2243598426430652e-02  6.0818408285309399e-02  5.9340501880720348e-02  5.8046752505346688e-02  6.5891121484531107e-02  6.7028988023753441e-02  6.8193658006561672e-02  6.9362006520098510e-02  7.0509253802303218e-02  7.1627549349785852e-02  7.2712165003517126e-02  7.3774273705516799e-02  7.4806093119583472e-02  7.5897519584319673e-02  7.6820470492684784e-02  6.9858062214841102e-02  6.8361829063273788e-02  6.6791022329919250e-02  6.5238195290962420e-02  6.3674216033343140e-02  6.2097641169892692e-02  6.0526731751593510e-02  5.8899646084828033e-02  5.7469369771146646e-02  6.4767624723475706e-02  6.6117561302601699e-02  6.7514500302977246e-02  6.8909248733772174e-02  7.0283787693033298e-02  7.1628661481295514e-02  7.2939783776572301e-02  7.4228923273517544e-02  7.5486634170528602e-02  7.6809520546039997e-02  7.7943938760923703e-02  7.0436337580570330e-02  6.8803639771924982e-02  6.7083700169765947e-02  6.5385197440027146e-02  6.3674749189586627e-02  6.1951700769000091e-02  6.0235093108976137e-02  5.8458854236059773e-02  5.6892063730740551e-02  6.3644477210275080e-02  6.5206385121813135e-02  6.6835507064551380e-02  6.8456582647674388e-02  7.0058357175160763e-02  7.1629774434518831e-02  7.3167394349258633e-02  7.4683588801160952e-02  7.6167256913794570e-02  7.7721707616047520e-02  7.9067720427020552e-02  7.1014654600276006e-02  6.9245492109647838e-02  6.7376410745531218e-02  6.5532224114451920e-02  6.3675304579176778e-02  6.1805789928288717e-02  5.9943499002594658e-02  5.8018124168423300e-02  5.6314825463018081e-02  6.2521629407721754e-02  6.4295439929129172e-02  6.6156676616902735e-02  6.8004008338934968e-02  6.9832959560149718e-02  7.1630884993134455e-02  7.3394997600434289e-02  7.5138275004970154e-02  7.6847959638173716e-02  7.8634051938820740e-02  8.0191741128367605e-02  7.1593006768705517e-02  6.9687382438943735e-02  6.7669155972216302e-02  6.5679282002272382e-02  6.3675891406568819e-02  6.1659917040778577e-02  5.9651953902643877e-02  5.7577455291967790e-02  5.5737651369672875e-02  6.1399044282225597e-02  6.3384709260549343e-02  6.5478009570892629e-02  6.7551533761854618e-02  6.9607606383443404e-02  7.1632007035032197e-02  7.3622608919213697e-02  7.5592994615307788e-02  7.7528743032799219e-02  7.9546529191761736e-02  8.1315943614741718e-02  7.2171390467096225e-02  7.0129308498824108e-02  6.7961936915178892e-02  6.5826375215434704e-02  6.3676515406114673e-02  6.1514087356134325e-02  5.9360460765002739e-02  5.7136847992351497e-02  5.5160540907033408e-02  6.0276697203787061e-02  6.2474181482548671e-02  6.4799508285441995e-02  6.7099169688794771e-02  6.9382314044287283e-02  7.1633160063320628e-02  7.3850247819350887e-02  7.6047761855270221e-02  7.8209608396616698e-02  8.0459120126598074e-02  8.2440285922863052e-02  7.2749803708910585e-02  7.0571268854002278e-02  6.8254754034363846e-02  6.5973506074897562e-02  6.3677179927228628e-02  6.1368304018218356e-02  5.9069021569859111e-02  5.6696303230477946e-02  5.4583495178461575e-02  5.9154574283128952e-02  6.1563849952843246e-02  6.4121176424078385e-02  6.6646927087072372e-02  6.9157098975201753e-02  7.1634363329075759e-02  7.4077932756925272e-02  7.6502589351028369e-02  7.8890556777896567e-02  8.1371810111447132e-02  8.3564738424783000e-02  7.3328245367002359e-02  7.1013262535551055e-02  6.8547607392446364e-02  6.6120675745668919e-02  6.3677886794104979e-02  6.1222568854164355e-02  5.8777637711266505e-02  5.6255822293326693e-02  5.4006516116271316e-02  5.8032670263240382e-02  6.0653712462473829e-02  6.3443018616586425e-02  6.6194815944975088e-02  6.8931975500681850e-02  7.1635633262960990e-02  7.4305678986499243e-02  7.6957486997980329e-02  7.9571588644085603e-02  8.2284588291417798e-02  8.4689280792183672e-02  7.3906714727072512e-02  7.1455288821333923e-02  6.8840496809454518e-02  6.6267884694030887e-02  6.3678636916508338e-02  6.1076882919618568e-02  5.8486310256555610e-02  5.5815406648841784e-02  5.3429606039519253e-02  5.6910986524667334e-02  5.9743770443393449e-02  6.2765040216551327e-02  6.5742844905462672e-02  6.8706955189701491e-02  7.1636982735818158e-02  7.4533498066212525e-02  7.7412461852301509e-02  8.0252703830726219e-02  8.3197446696243557e-02  8.5813899349990730e-02  7.4485211247260860e-02  7.1897347110205581e-02  6.9133421967834591e-02  6.6415132991049092e-02  6.3679430691025787e-02  6.0931246848960542e-02  5.8195040107785402e-02  5.5375057867494311e-02  5.2852767436488812e-02  5.5789529438011208e-02  5.8834028189807187e-02  6.2087247137385934e-02  6.5291021308830299e-02  6.8482046960283607e-02  7.1638421232765551e-02  7.4761398161900763e-02  7.7867518490378859e-02  8.0933901619316850e-02  8.4110379448702560e-02  8.6938584974025970e-02  7.5063734439886134e-02  7.2339436854932632e-02  6.9426382478964224e-02  6.6562420500939551e-02  6.3680268247729446e-02  6.0785661066096452e-02  5.7903828095978487e-02  5.4934777583907579e-02  5.2276002872918045e-02  5.4668309120635909e-02  5.7924492202271104e-02  6.1409645748006406e-02  6.4839351408794446e-02  6.8257257499256568e-02  7.1639955403789313e-02  7.4989384659054012e-02  7.8322659522320717e-02  8.1615180859774691e-02  8.5023382128556618e-02  8.8063331524784905e-02  7.5642283820799100e-02  7.2781557529592214e-02  6.9719377922614734e-02  6.6709746990674709e-02  6.3681149592338934e-02  6.0640125903262634e-02  5.7612675032476177e-02  5.4494567481028065e-02  5.1699314965333053e-02  5.3547338569157957e-02  5.7015170686928289e-02  6.0732242811077461e-02  6.4387840630954679e-02  6.8032591755729996e-02  7.1641589696066377e-02  7.5217460818524443e-02  7.8777886097379526e-02  8.2296540094140877e-02  8.5936451295556354e-02  8.9188134739235869e-02  7.6220858893303017e-02  7.3223708615911112e-02  7.0012407868822679e-02  6.6857112189435325e-02  6.3682074682438042e-02  6.0494641663008789e-02  5.7321581734642385e-02  5.4054429286096446e-02  5.1122706384697514e-02  5.2426633107236560e-02  5.6106073204411501e-02  6.0055045449423701e-02  6.3936493805959255e-02  6.7808053385414735e-02  7.1643326920054068e-02  7.5445628348233415e-02  7.9233198328208437e-02  8.2977977662301527e-02  8.6849584152734388e-02  9.0312991483717353e-02  7.6799459147734978e-02  7.3665889599136475e-02  7.0305471889037713e-02  6.7004515818093469e-02  6.3683043464662983e-02  6.0349208647285747e-02  5.7030549037205322e-02  5.3614364772187888e-02  5.0546179871837064e-02  5.1306210085154083e-02  5.5197210448184701e-02  5.9378061128890804e-02  6.3485315345244583e-02  6.7583645090010497e-02  7.1645168684463093e-02  7.5673887839111179e-02  7.9688595609386154e-02  8.3659491783921486e-02  8.7762778325342322e-02  9.1437899278640586e-02  7.7378084066812708e-02  7.4108099968145838e-02  7.0598569561102706e-02  6.7151957601892548e-02  6.3684055890251098e-02  6.0203827168722981e-02  5.6739577796158770e-02  5.3174375762009556e-02  4.9969738255635443e-02  5.0186088779403885e-02  5.4288594130078562e-02  5.8701297647883864e-02  6.3034309344665126e-02  6.7359368829573107e-02  7.1647115677247963e-02  7.5902239051462456e-02  8.0144076828862806e-02  8.4341080617683695e-02  8.8676031733826544e-02  9.2562856025083587e-02  7.7956733132032024e-02  7.4550339217071035e-02  7.0891700470910465e-02  6.7299437274330950e-02  6.3685111919456069e-02  6.0058497553075615e-02  5.6448668889173596e-02  5.2734464132332216e-02  4.9393384470320691e-02  4.9066290459402001e-02  5.3380236955648003e-02  5.8024763124984953e-02  6.2583479607459816e-02  6.7135225898976109e-02  7.1649167786764875e-02  7.6130681052760857e-02  8.0599640479440265e-02  8.5022742302131415e-02  8.9589342546823991e-02  9.3687859887159941e-02  7.8535405829236654e-02  7.4992606847152948e-02  7.1184864212412172e-02  6.7446954576831128e-02  6.3686211520711009e-02  5.9913220137721622e-02  5.6157823214645776e-02  5.2294631818428375e-02  4.8817121570854910e-02  4.794683861042878