<?xml version="1.0"?>
<VTKFile type="UnstructuredGrid"  version="0.1"  >
<UnstructuredGrid>
<Piece  NumberOfPoints="24445" NumberOfCells="46366">
<Points>
<DataArray  type="Float64"  NumberOfComponents="3"  format="ascii">0 1 0  0 0.9966666666666667 0  0.003333333333333334 1 0  0.003333333333333334 0.9966666666666667 0  0.006666666666666667 1 0  0.006666666666666667 0.9966666666666667 0  0.01 1 0  0.01 0.9966666666666667 0  0.01333333333333333 1 0  0.01333333333333333 0.9966666666666667 0  0.01666666666666667 1 0  0.01666666666666667 0.9966666666666667 0  0.02 1 0  0.02 0.9966666666666667 0  0.02333333333333333 1 0  0.02333333333333333 0.9966666666666667 0  0.02666666666666667 1 0  0.02666666666666667 0.9966666666666667 0  0.03 1 0  0.03 0.9966666666666667 0  0.03333333333333333 1 0  0.03333333333333333 0.9966666666666667 0  0.03666666666666667 1 0  0.03666666666666667 0.9966666666666667 0  0.04 1 0  0.04 0.9966666666666667 0  0.04333333333333333 1 0  0.04333333333333333 0.9966666666666667 0  0.04666666666666667 1 0  0.04666666666666667 0.9966666666666667 0  0.05 1 0  0.05 0.9966666666666667 0  0.2666666666666667 1 0  0.2666666666666667 0.9966666666666667 0  0.27 1 0  0.27 0.9966666666666667 0  0.2733333333333333 1 0  0.2733333333333333 0.9966666666666667 0  0.2766666666666667 1 0  0.2766666666666667 0.9966666666666667 0  0.28 1 0  0.28 0.9966666666666667 0  0.2833333333333333 1 0  0.2833333333333333 0.9966666666666667 0  0.2866666666666667 1 0  0.2866666666666667 0.9966666666666667 0  0.29 1 0  0.29 0.9966666666666667 0  0.2933333333333333 1 0  0.2933333333333333 0.9966666666666667 0  0.2966666666666667 1 0  0.2966666666666667 0.9966666666666667 0  0.3 1 0  0.3 0.9966666666666667 0  0.3033333333333333 1 0  0.3033333333333333 0.9966666666666667 0  0.3066666666666666 1 0  0.3066666666666666 0.9966666666666667 0  0.31 1 0  0.31 0.9966666666666667 0  0.3133333333333334 1 0  0.3133333333333334 0.9966666666666667 0  0.3166666666666667 1 0  0.3166666666666667 0.9966666666666667 0  0.32 1 0  0.32 0.9966666666666667 0  0.3233333333333333 1 0  0.3233333333333333 0.9966666666666667 0  0.3266666666666667 1 0  0.3266666666666667 0.9966666666666667 0  0.33 1 0  0.33 0.9966666666666667 0  0.3333333333333333 1 0  0.3333333333333333 0.9966666666666667 0  0 0.9933333333333333 0  0.003333333333333334 0.9933333333333333 0  0.006666666666666667 0.9933333333333333 0  0.01 0.9933333333333333 0  0.01333333333333333 0.9933333333333333 0  0.01666666666666667 0.9933333333333333 0  0.02 0.9933333333333333 0  0.02333333333333333 0.9933333333333333 0  0.02666666666666667 0.9933333333333333 0  0.03 0.9933333333333333 0  0.03333333333333333 0.9933333333333333 0  0.03666666666666667 0.9933333333333333 0  0.04 0.9933333333333333 0  0.04333333333333333 0.9933333333333333 0  0.04666666666666667 0.9933333333333333 0  0.05 0.9933333333333333 0  0.2666666666666667 0.9933333333333333 0  0.27 0.9933333333333333 0  0.2733333333333333 0.9933333333333333 0  0.2766666666666667 0.9933333333333333 0  0.28 0.9933333333333333 0  0.2833333333333333 0.9933333333333333 0  0.2866666666666667 0.9933333333333333 0  0.29 0.9933333333333333 0  0.2933333333333333 0.9933333333333333 0  0.2966666666666667 0.9933333333333333 0  0.3 0.9933333333333333 0  0.3033333333333333 0.9933333333333333 0  0.3066666666666666 0.9933333333333333 0  0.31 0.9933333333333333 0  0.3133333333333334 0.9933333333333333 0  0.3166666666666667 0.9933333333333333 0  0.32 0.9933333333333333 0  0.3233333333333333 0.9933333333333333 0  0.3266666666666667 0.9933333333333333 0  0.33 0.9933333333333333 0  0.3333333333333333 0.9933333333333333 0  0 0.99 0  0.003333333333333334 0.99 0  0.006666666666666667 0.99 0  0.01 0.99 0  0.01333333333333333 0.99 0  0.01666666666666667 0.99 0  0.02 0.99 0  0.02333333333333333 0.99 0  0.02666666666666667 0.99 0  0.03 0.99 0  0.03333333333333333 0.99 0  0.03666666666666667 0.99 0  0.04 0.99 0  0.04333333333333333 0.99 0  0.04666666666666667 0.99 0  0.05 0.99 0  0.2666666666666667 0.99 0  0.27 0.99 0  0.2733333333333333 0.99 0  0.2766666666666667 0.99 0  0.28 0.99 0  0.2833333333333333 0.99 0  0.2866666666666667 0.99 0  0.29 0.99 0  0.2933333333333333 0.99 0  0.2966666666666667 0.99 0  0.3 0.99 0  0.3033333333333333 0.99 0  0.3066666666666666 0.99 0  0.31 0.99 0  0.3133333333333334 0.99 0  0.3166666666666667 0.99 0  0.32 0.99 0  0.3233333333333333 0.99 0  0.3266666666666667 0.99 0  0.33 0.99 0  0.3333333333333333 0.99 0  0 0.9866666666666667 0  0.003333333333333334 0.9866666666666667 0  0.006666666666666667 0.9866666666666667 0  0.01 0.9866666666666667 0  0.01333333333333333 0.9866666666666667 0  0.01666666666666667 0.9866666666666667 0  0.02 0.9866666666666667 0  0.02333333333333333 0.9866666666666667 0  0.02666666666666667 0.9866666666666667 0  0.03 0.9866666666666667 0  0.03333333333333333 0.9866666666666667 0  0.03666666666666667 0.9866666666666667 0  0.04 0.9866666666666667 0  0.04333333333333333 0.9866666666666667 0  0.04666666666666667 0.9866666666666667 0  0.27 0.9866666666666667 0  0.2733333333333333 0.9866666666666667 0  0.2766666666666667 0.9866666666666667 0  0.28 0.9866666666666667 0  0.2833333333333333 0.9866666666666667 0  0.2866666666666667 0.9866666666666667 0  0.29 0.9866666666666667 0  0.2933333333333333 0.9866666666666667 0  0.2966666666666667 0.9866666666666667 0  0.3 0.9866666666666667 0  0.3033333333333333 0.9866666666666667 0  0.3066666666666666 0.9866666666666667 0  0.31 0.9866666666666667 0  0.3133333333333334 0.9866666666666667 0  0.3166666666666667 0.9866666666666667 0  0.32 0.9866666666666667 0  0.3233333333333333 0.9866666666666667 0  0.3266666666666667 0.9866666666666667 0  0.33 0.9866666666666667 0  0.3333333333333333 0.9866666666666667 0  0 0.9833333333333333 0  0.003333333333333334 0.9833333333333333 0  0.006666666666666667 0.9833333333333333 0  0.01 0.9833333333333333 0  0.01333333333333333 0.9833333333333333 0  0.01666666666666667 0.9833333333333333 0  0.02 0.9833333333333333 0  0.02333333333333333 0.9833333333333333 0  0.02666666666666667 0.9833333333333333 0  0.03 0.9833333333333333 0  0.03333333333333333 0.9833333333333333 0  0.03666666666666667 0.9833333333333333 0  0.04 0.9833333333333333 0  0.04333333333333333 0.9833333333333333 0  0.04666666666666667 0.9833333333333333 0  0.27 0.9833333333333333 0  0.2733333333333333 0.9833333333333333 0  0.2766666666666667 0.9833333333333333 0  0.28 0.9833333333333333 0  0.2833333333333333 0.9833333333333333 0  0.2866666666666667 0.9833333333333333 0  0.29 0.9833333333333333 0  0.2933333333333333 0.9833333333333333 0  0.2966666666666667 0.9833333333333333 0  0.3 0.9833333333333333 0  0.3033333333333333 0.9833333333333333 0  0.3066666666666666 0.9833333333333333 0  0.31 0.9833333333333333 0  0.3133333333333334 0.9833333333333333 0  0.3166666666666667 0.9833333333333333 0  0.32 0.9833333333333333 0  0.3233333333333333 0.9833333333333333 0  0.3266666666666667 0.9833333333333333 0  0.33 0.9833333333333333 0  0.3333333333333333 0.9833333333333333 0  0 0.98 0  0.003333333333333334 0.98 0  0.006666666666666667 0.98 0  0.01 0.98 0  0.01333333333333333 0.98 0  0.01666666666666667 0.98 0  0.02 0.98 0  0.02333333333333333 0.98 0  0.02666666666666667 0.98 0  0.03 0.98 0  0.03333333333333333 0.98 0  0.03666666666666667 0.98 0  0.04 0.98 0  0.04333333333333333 0.98 0  0.04666666666666667 0.98 0  0.27 0.98 0  0.2733333333333333 0.98 0  0.2766666666666667 0.98 0  0.28 0.98 0  0.2833333333333333 0.98 0  0.2866666666666667 0.98 0  0.29 0.98 0  0.2933333333333333 0.98 0  0.2966666666666667 0.98 0  0.3 0.98 0  0.3033333333333333 0.98 0  0.3066666666666666 0.98 0  0.31 0.98 0  0.3133333333333334 0.98 0  0.3166666666666667 0.98 0  0.32 0.98 0  0.3233333333333333 0.98 0  0.3266666666666667 0.98 0  0.33 0.98 0  0.3333333333333333 0.98 0  0 0.9766666666666667 0  0.003333333333333334 0.9766666666666667 0  0.006666666666666667 0.9766666666666667 0  0.01 0.9766666666666667 0  0.01333333333333333 0.9766666666666667 0  0.01666666666666667 0.9766666666666667 0  0.02 0.9766666666666667 0  0.02333333333333333 0.9766666666666667 0  0.02666666666666667 0.9766666666666667 0  0.03 0.9766666666666667 0  0.03333333333333333 0.9766666666666667 0  0.03666666666666667 0.9766666666666667 0  0.04 0.9766666666666667 0  0.04333333333333333 0.9766666666666667 0  0.04666666666666667 0.9766666666666667 0  0.27 0.9766666666666667 0  0.2733333333333333 0.9766666666666667 0  0.2766666666666667 0.9766666666666667 0  0.28 0.9766666666666667 0  0.2833333333333333 0.9766666666666667 0  0.2866666666666667 0.9766666666666667 0  0.29 0.9766666666666667 0  0.2933333333333333 0.9766666666666667 0  0.2966666666666667 0.9766666666666667 0  0.3 0.9766666666666667 0  0.3033333333333333 0.9766666666666667 0  0.3066666666666666 0.9766666666666667 0  0.31 0.9766666666666667 0  0.3133333333333334 0.9766666666666667 0  0.3166666666666667 0.9766666666666667 0  0.32 0.9766666666666667 0  0.3233333333333333 0.9766666666666667 0  0.3266666666666667 0.9766666666666667 0  0.33 0.9766666666666667 0  0.3333333333333333 0.9766666666666667 0  0 0.9733333333333334 0  0.003333333333333334 0.9733333333333334 0  0.006666666666666667 0.9733333333333334 0  0.01 0.9733333333333334 0  0.01333333333333333 0.9733333333333334 0  0.01666666666666667 0.9733333333333334 0  0.02 0.9733333333333334 0  0.02333333333333333 0.9733333333333334 0  0.02666666666666667 0.9733333333333334 0  0.03 0.9733333333333334 0  0.03333333333333333 0.9733333333333334 0  0.03666666666666667 0.9733333333333334 0  0.04 0.9733333333333334 0  0.04333333333333333 0.9733333333333334 0  0.04666666666666667 0.9733333333333334 0  0.27 0.9733333333333334 0  0.2733333333333333 0.9733333333333334 0  0.2766666666666667 0.9733333333333334 0  0.28 0.9733333333333334 0  0.2833333333333333 0.9733333333333334 0  0.2866666666666667 0.9733333333333334 0  0.29 0.9733333333333334 0  0.2933333333333333 0.9733333333333334 0  0.2966666666666667 0.9733333333333334 0  0.3 0.9733333333333334 0  0.3033333333333333 0.973333333333333
[...]
<PointData  Scalars="f_122"> 
<DataArray  type="Float64"  Name="f_122"  format="ascii">-8.6037105161947783e-11  2.2080373021264681e-10  -4.3049370287724301e-11  8.3197030361434396e-11  -5.9279996045636083e-11  1.1860963110553048e-10  -5.2382173510915451e-11  1.0694612893069769e-10  -5.5101255069516979e-11  1.0739101715962521e-10  -6.3972280425423885e-11  1.1608997501709549e-10  -7.3711434349451313e-11  1.4023321096866039e-10  -6.1969323683500488e-11  1.4387189413415583e-10  -2.7478666753569772e-11  9.2631127467856294e-11  9.1519743020953069e-13  2.0331935919498552e-11  5.6016981496111419e-12  -1.2139043908147821e-11  2.0299575662354401e-13  -5.2251471341021478e-12  -1.0587801869875004e-12  2.3447008829196938e-12  2.2996378386126387e-14  7.1864361053797345e-13  7.2271018331407848e-14  -2.9437816136830611e-13  -9.2225290341618011e-14  1.1217956235182815e-13  -9.8957997475341123e-11  2.1363237080474461e-10  -5.2796587846145792e-11  1.1749810347138294e-10  -6.5522272738578237e-11  1.2313179517401489e-10  -6.5216714386088695e-11  1.3244167415783664e-10  -6.5126466680784715e-11  1.2853283871011095e-10  -6.7220500744577600e-11  1.3306516889757698e-10  -6.9174230971711300e-11  1.3574668216240340e-10  -7.2113399547728177e-11  1.4144296089888402e-10  -7.3944682362710136e-11  1.4645669441151072e-10  -7.9857568298736551e-11  1.5136283659985209e-10  -9.9445450686431540e-11  1.7490493482092915e-10  -1.1949071916997083e-10  2.2310556097271838e-10  -1.0316122600171581e-10  2.3666993488126891e-10  -4.6948139805073469e-11  1.5603317261140011e-10  1.2622027108597388e-12  3.5760758449248414e-11  1.0231480250333381e-11  -2.1189036804457498e-11  8.2449199030689159e-13  -1.0548751297125967e-11  -2.0326951427920479e-12  3.9758827724346102e-12  5.9129866345584420e-14  1.6803917276153056e-12  3.8455542672671687e-13  -1.0337114686193932e-12  -1.5669045466211218e-13  -7.1174517402492651e-14  -8.3152533266183206e-10  -2.8682700208747770e-10  -4.2268206594962400e-10  -3.7678951364231879e-10  -3.7922573865046082e-10  -3.8067303967464043e-10  -4.4441750306126525e-10  -5.1925991712705923e-10  -4.4115502808142678e-10  -1.8938757634228620e-10  1.3467346588949187e-11  3.7743232494719924e-11  -2.4027005711140822e-12  -6.3032167724758172e-12  9.7681619629803587e-13  -1.3663779769554749e-13  -4.3622537797489477e-10  -4.9080352816049146e-10  -3.9919467332506962e-10  -4.7121701476349934e-10  -4.4435867694296624e-10  -4.6200201730622989e-10  -4.6832154952636731e-10  -4.8427194152821482e-10  -5.0530156991954631e-10  -5.2018631213780129e-10  -5.5555008603229295e-10  -6.8904490148066223e-10  -8.4222716420142762e-10  -7.3427923349858962e-10  -3.2424112969352403e-10  2.0518380285307976e-11  6.9910150428119970e-11  -4.6046085398239626e-13  -1.3318273058629225e-11  2.2673166655687877e-12  1.8820496428623969e-12  3.1786626410944634e-09  1.0816698144194480e-09  1.5894988361428321e-09  1.4084034138177900e-09  1.4286857126000225e-09  1.3897941265294223e-09  1.4944063610534686e-09  1.8157084281301170e-09  1.9013185006721704e-09  1.2177561396837723e-09  2.3329393647508976e-10  -1.7064656417256837e-10  -4.9513285771339719e-11  3.5369919726962358e-11  8.1192078925147769e-13  -6.5722884603800082e-13  -8.3762539913861838e-10  2.1114761762521317e-09  1.3376345697347149e-09  1.7789241144943295e-09  1.6363578550229032e-09  1.7020387258367402e-09  1.7210555968623239e-09  1.7663358080704115e-09  1.8357293174835450e-09  1.9126387003894107e-09  1.9715112973779470e-09  2.2447526610135411e-09  2.8892835023106042e-09  3.1276281220232939e-09  2.0518124653706049e-09  4.1560123494321887e-10  -2.9895225903445231e-10  -1.0882877486401675e-10  6.1572531143111081e-11  1.0873976897029058e-11  -1.3688333733670927e-11  -1.2175347265389714e-08  -4.1142214386770695e-09  -6.0256065903276050e-09  -5.2919505867295260e-09  -5.3771828653281244e-09  -5.2371136983264423e-09  -5.2648443561784779e-09  -6.0820058220659656e-09  -7.2442921882520483e-09  -6.2366684383863727e-09  -2.5739382324398049e-09  3.0298526783139912e-10  4.8590288741659159e-10  -8.8887060266553032e-11  -6.5925175769542976e-11  -1.2440247446115899e-08  -4.3290501222327790e-09  -6.6971593854363544e-09  -6.0799660381986692e-09  -6.3035682405633973e-09  -6.3597168720930266e-09  -6.5046676761555181e-09  -6.6975385955581824e-09  -7.0062383063551508e-09  -7.2513466287855093e-09  -7.6593761187149730e-09  -9.4253396595419320e-09  -1.1751470071676355e-08  -1.0378888230444603e-08  -4.4166955555534752e-09  4.7395068896623772e-10  9.2256187444784841e-10  -1.0165918694654561e-10  -1.5604246803252163e-10  5.3965365633967463e-11  4.6661510447760582e-08  1.5720176690418283e-08  2.2905773341846960e-08  1.9982869574962304e-08  2.0173721151109334e-08  1.9781351199496955e-08  1.9464878372838251e-08  2.0559106797041499e-08  2.5131949890600524e-08  2.6935450570561017e-08  1.7183715840092421e-08  2.7425466489422031e-09  -2.5350702832099083e-09  -3.7428539891053364e-10  5.0177341490717816e-10  4.7479216392955810e-08  1.6854446175976058e-08  2.4808150642985140e-08  2.2667263145834647e-08  2.3397978739839358e-08  2.3524717032972157e-08  2.4018725793605305e-08  2.4579144326045346e-08  2.5514928104259688e-08  2.6723018940341325e-08  2.7566525259673450e-08  3.0850153782551652e-08  3.9978694201765741e-08  4.4317442493943737e-08  2.8944611928558949e-08  4.9930852459258049e-09  -4.4593046745263716e-09  -1.0405770402818475e-09  9.3126899926670110e-10  -1.9766877799146454e-11  -1.7860294578173948e-07  -6.0315561510137085e-08  -8.7283213717915513e-08  -7.5714644569544681e-08  -7.5944510196130630e-08  -7.4192904032929257e-08  -7.3519506124347713e-08  -7.3108264054717587e-08  -8.3496354812728148e-08  -1.0146360388816237e-07  -8.8983804639261074e-08  -3.4985880949972406e-08  6.1529084640446263e-09  5.9003638299353521e-09  -2.0183703953193986e-09  -1.7875947713914716e-07  -6.3692233062213654e-08  -9.2952513461236431e-08  -8.4391890210818735e-08  -8.7040692623381931e-08  -8.7155625715701077e-08  -8.8746095902923496e-08  -9.0605735669479359e-08  -9.3200577912946791e-08  -9.7487377077088345e-08  -1.0167460499375451e-07  -1.0638699653968269e-07  -1.2917442983881219e-07  -1.6468852191706381e-07  -1.4800908087480841e-07  -6.0173534650419246e-08  9.6724607874181430e-09  1.1734346490682337e-08  -2.7837512612327488e-09  -1.4858171613074674e-09  6.8275318064253446e-07  2.3141705331020845e-07  3.3398078811209018e-07  2.8712275024281948e-07  2.8750419817168541e-07  2.7791382088150085e-07  2.7675254728594664e-07  2.7241942797545118e-07  2.8322203212005027e-07  3.4663690801155643e-07  3.8255747430824514e-07  2.4367567195480274e-07  2.9144247431213461e-08  -3.7183657461176469e-08  5.5629209495957183e-10  6.7240819689608059e-07  2.4002695783513699e-07  3.4950476856959343e-07  3.1463183865189636e-07  3.2423729490881672e-07  3.2348913487231823e-07  3.2830871217538446e-07  3.3438578180075701e-07  3.4259743591233879e-07  3.5460507188160707e-07  3.7295642644302060e-07  3.8667603293626540e-07  4.2407830209216915e-07  5.5121494741313293e-07  6.2980355810716532e-07  4.0985092928666180e-07  5.5589201528760546e-08  -6.5718558664931920e-08  -6.0763480905392734e-09  1.2639634369576046e-08  -2.6178497613609056e-06  -8.8145024166649070e-07  -1.2848675396575083e-06  -1.0899582173400076e-06  -1.0912654121132239e-06  -1.0471371932755339e-06  -1.0344650632420431e-06  -1.0286710591733109e-06  -1.0191923179063275e-06  -1.1425915919335364e-06  -1.4180494038632060e-06  -1.2771606134252004e-06  -4.7262545445384093e-07  1.2010092785886160e-07  6.1247205088044199e-08  -2.5373854791247273e-06  -8.9917907039144134e-07  -1.3204439318836818e-06  -1.1745987294974613e-06  -1.2095899622202809e-06  -1.2025221979226242e-06  -1.2167623000564119e-06  -1.2350631680503358e-06  -1.2628058392695260e-06  -1.2979633163044537e-06  -1.3545330223505027e-06  -1.4253246590546585e-06  -1.4837046655646774e-06  -1.7630947009592408e-06  -2.3042138919630311e-06  -2.1229757305878655e-06  -8.1333998924281334e-07  1.8617348331152296e-07  1.3721820796174679e-07  -5.6631790352604748e-08  1.0163510668467801e-05  3.3118676011939499e-06  4.9653809158705409e-06  4.1498349396585650e-06  4.1449437777971764e-06  3.9651171570830794e-06  3.8780184588720821e-06  3.8499138048614535e-06  3.8265979560652644e-06  3.9041771423839263e-06  4.7587551908550818e-06  5.4400990553629319e-06  3.4873063372421304e-06  2.3268615566118026e-07  -5.3387406341858518e-07  9.6922136394111169e-06  3.3290245896119385e-06  5.0114440890137297e-06  4.3954655757723863e-06  4.5180240880947532e-06  4.4777674790861306e-06  4.5159915409450667e-06  4.5703697783184850e-06  4.6568828753331822e-06  4.7759954269255569e-06  4.9319208247270612e-06  5.1910037864103221e-06  5.4395493964533162e-06  5.8403436219200391e-06  7.5508498918576560e-06  8.9794853859470116e-06  5.8362683913920269e-06  5.1513366052565708e-07  -9.4592342197754978e-07  6.4867388003634445e-08  -4.0419674622240368e-05  -1.2283637414797077e-05  -1.9217159773678025e-05  -1.5870510481074281e-05  -1.5763998093547791e-05  -1.5039393040524150e-05  -1.4635869533255274e-05  -1.4365669925404617e-05  -1.4375293196286540e-05  -1.4290522110271232e-05  -1.5558109981113256e-05  -1.9778056365967889e-05  -1.8413389477019088e-05  -6.4334476895791450e-06  2.4364230083834358e-06  -3.7911587136042621e-05  -1.2181179200261962e-05  -1.9060061516318631e-05  -1.6513470180873496e-05  -1.6893748789488807e-05  -1.6703440102220877e-05  -1.6785068241193467e-05  -1.6939733763902908e-05  -1.7203533854180034e-05  -1.7586259595743912e-05  -1.8097747510296103e-05  -1.8808280312747894e-05  -1.9929354945489699e-05  -2.0830259516941833e-05  -2.3955402136366301e-05  -3.2102217629725038e-05  -3.0734623346657021e-05  -1.0841290328337636e-05  3.4873099017003966e-06  1.2848378903624200e-06  1.6544262542289172e-04  4.5739593235838529e-05  7.4123687379200565e-05  6.1056170641674435e-05  6.0032834256467948e-05  5.7166279108961489e-05  5.5359885826106189e-05  5.4017258723399036e-05  5.3459991294836917e-05  5.3771448157631445e-05  5.4174312582946499e-05  6.4579993446733100e-05  7.7860989960988567e-05  4.9903445564067907e-05  9.5421454913931114e-07  2.8214720113638644e-06  -8.0793670311111668e-06  1.5272824728292719e-04  4.4705710147220684e-05  7.2331775477688584e-05  6.2382774322732967e-05  6.3244947403529779e-05  6.2420965952629802e-05  6.2482700124197321e-05  6.2877124169055613e-05  6.3663519190471774e-05  6.4856424640604029e-05  6.6529535996076339e-05  6.8743572722539941e-05  7.2010286998595309e-05  7.6573829321168921e-05  8.1012591843965292e-05  1.0226110460712100e-04  1.2851189137644880e-04  8.4023602884216188e-05  1.9200504788485701e-06  -1.2856667689623846e-05  -6.8841344325817986e-04  -1.7765091056429810e-04  -2.8364964961578084e-04  -2.3638744134845218e-04  -2.2901843388250360e-04  -2.1776651283231111e-04  -2.0982049076995342e-04  -2.0384709944525837e-04  -2.0007479055741281e-04  -1.9973290097094194e-04  -2.0186427654606603e-04  -2.1168440846458655e-04  -2.7249468841265845e-04  -2.7096324452107856e-04  -8.2425796206853091e-05  3.8873455060256836e-05  -6.2690437760240308e-04  -1.7048246962677354e-04  -2.7271904768085242e-04  -2.3711884893864418e-04  -2.3718098818177439e-04  -2.3368521754439563e-04  -2.3297103680739516e-04  -2.3373474571605074e-04  -2.3594941660784832e-04  -2.3962197972655336e-04  -2.4491982985368562e-04  -2.5217337637987059e-04  -2.6192185512698694e-04  -2.7671963365004794e-04  -2.9498660665708813e-04  -3.2513821668167352e-04  -4.4189527441536639e-04  -4.5262394035826389e-04  -1.4037370512732695e-04  6.5040447486281347e-05  2.8192539144349751e-03  7.5054297040992807e-04  1.0762433671911173e-03  9.1982960180130957e-04  8.7598327176683982e-04  8.3119228081082925e-04  7.9704660747008946e-04  7.7096378449215694e-04  7.5263694895727766e-04  7.4391454478518683e-04  7.4919048869149781e-04  7.6546671927987212e-04  8.6024439043671662e-04  1.1149304096172074e-03  7.3800510660374809e-04  -6.2218200015004498e-05  2.5410842425675341e-03  7.0428935750877376e-04  1.0207949281049898e-03  9.0608319092066233e-04  8.9181538877344260e-04  8.7644688507400130e-04  8.7015053182541529e-04  8.7019198620259374e-04  8.7577711721572812e-04  8.8673546451447250e-04  9.0334571647532650e-04  9.2658265811656581e-04  9.5802617642473491e-04  1.0016441046459999e-03  1.0669980427186381e-03  1.1471930263905023e-03  1.3572444583209548e-03  1.8411163492276477e-03  1.2443607782040109e-03  -1.0047870793111109e-04  -1.0818784529600204e-02  -3.4547057272856646e-03  -4.0779850229775176e-03  -3.5885471922003460e-03  -3.3626199666012351e-03  -3.1788956713809848e-03  -3.0345029460061030e-03  -2.9223457605151537e-03  -2.8394529126499419e-03  -2.7873252203683987e-03  -2.7781817944631413e-03  -2.8247452242338949e-03  -2.9639412855628992e-03  -3.5937430890772342e-03  -4.1506309327327354e-03  -9.7672287576402029e-04  -9.6838143097537927e-03  -3.1721827415332792e-03  -3.8180457269626680e-03  -3.4738948727890814e-03  -3.3653766929938552e-03  -3.2937458785210197e-03  -3.2560351467956993e-03  -3.2448506610815715e-03  -3.2555231226516872e-03  -3.2863828690358724e-03  -3.3375813554075897e-03  -3.4112692564951955e-03  -3.5125053788706766e-03  -3.6497832109334402e-03  -3.8464641473089220e-03  -4.1326549997322418e-03  -4.5546208363116359e-03  -5.8101217981351653e-03  -6.9436623189820549e-03  -1.6701423460529828e-03  3.6233531030362552e-02  1.6384666843687133e-02  1.5670540187759204e-02  1.4013836531990398e-02  1.2961978641797592e-02  1.2185371147822623e-02  1.1577950240492581e-02  1.1102069979158908e-02  1.0737950050625476e-02  1.0484837672707968e-02  1.0360196862872709e-02  1.0427859315031419e-02  1.0748077902426288e-02  1.1828347014545293e-02  1.4873508938159401e-02  1.2747807106856876e-02  3.2294785027857556e-02  1.4805691035581789e-02  1.4483891850257452e-02  1.3345375840226726e-02  1.2754537697438319e-02  1.2407464632140314e-02  1.2208160204927628e-02  1.2120049798549273e-02  1.2120269919359161e-02  1.2198133243249799e-02  1.2350755867294031e-02  1.2582303209692480e-02  1.2905470688964570e-02  1.3346005217146408e-02  1.3951993293562778e-02  1.4840587653591244e-02  1.6142236259313263e-02  1.8623828071711836e-02  2.4536825064843580e-02  2.1519935865804720e-02  5.6048779182979715e-02  5.1312049225801251e-02  4.0826922369552272e-02  3.6038887685603226e-02  3.2922048112283130e-02  3.0631338487649162e-02  2.8887611435409667e-02  2.7529538165411122e-02  2.6483135439929667e-02  2.5725925734796797e-02  2.5278068226106239e-02  2.5207177394286812e-02  2.5636858963003051e-02  2.6944423129645002e-02  2.7994221144364815e-02  3.6978478276219744e-02  4.7467472188028201e-02  4.4515283320161234e-02  3.6198590230134983e-02  3.2973245680403579e-02  3.1176498766950875e-02  3.0087863718969418e-02  2.9462446491330785e-02  2.9156133076864033e-02  2.9095977128624339e-02  2.9245377300046598e-02  2.9590786103750120e-02  3.0137817346317979e-02  3.0912302798758021e-02  3.1966767504999473e-02  3.3395032091089218e-02  3.5352864610243485e-02  3.8097039781433729e-02  4.2287716278790251e-02  4.6497316379423552e-02  6.3409814971825212e-02  4.2435381764152132e-02  4.2250614445451008e-02  3.8638870174664552e-02  3.4893300511530868e-02  3.1903065779935312e-02  2.9639788958861362e-02  2.7869575939392450e-02  2.6468660645519549e-02  2.5375112824302760e-02  2.4562975724553536e-02  2.4033854167629810e-02  2.3810124451322835e-02  2.3910332673853615e-02  2.4219706708814542e-02  2.4703278091071458e-02  2.2344132314628132e-02  3.3694452016052451e-02  3.4670316422277553e-02  3.2827415137600319e-02  3.0658270416804023e-02  2.9082104447336901e-02  2.8120414407512860e-02  2.7571815928080976e-02  2.7328016943568161e-02  2.7328874465894631e-02  2.7541310049742737e-02  2.7953442805646846e-02  2.8570846178893310e-02  2.9416151053460626e-02  3.0530992258011810e-02  3.1976834615924835e-02  3.3834145213740473e-02  3.6187345379783777e-02  3.8907904066431562e-02  4.2177449023440165e-02  4.1138038959994225e-02  4.0962504072781715e-02  4.2688714868352164e-02  4.1492794092724945e-02  3.8614296104740174e-02  3.5810976302125375e-02  3.3479513620393808e-02  3.1548743792139310e-02  2.9971259165680206e-02  2.8697234211349901e-02  2.7696115251142489e-02  2.6947646588433436e-02  2.6430124116617937e-02  2.6068289250512952e-02  2.5748845150562114e-02  2.4766997064290103e-02  2.2896028071838340e-02  3.1137950574368318e-02  3.4167867569763470e-02  3.4578566475454091e-02  3.3352292800743887e-02  3.2126103793839400e-02  3.1276525491079427e-02  3.0758212110842089e-02  3.0535736079587684e-02  3.0565720079395245e-02  3.0821635212389575e-02  3.1291723513568279e-02  3.1977021285976015e-02  3.2889589414656924e-02  3.4049612510435076e-02  3.5478042845238721e-02  3.7182923983233626e-02  3.9098123732363453e-02  4.1085423138032574e-02  4.2231603726590732e-02  4.2013241950767270e-02  4.0420508626461328e-02  4.1458559106355007e-02  4.0926004866415726e-02  3.9276866534063939e-02  3.7220148074392466e-02  3.5168648189806119e-02  3.3331118496298058e-02  3.1745434304000106e-02  3.0399124356475946e-02  2.9271522264923827e-02  2.8331987408782466e-02  2.7531672828415624e-02  2.6768547079803352e-02  2.5861675313670250e-02  2.4338507834441296e-02  2.1701206081762209e-02  2.9821972328206828e-02  3.2448040939556624e-02  3.3561442887823111e-02  3.3529612879581887e-02  3.3072300757138705e-02  3.2575949254482900e-02  3.2251277721867297e-02  3.2142346631725084e-02  3.2246009734744181e-02  3.2554282231600312e-02  3.3060434019934970e-02  3.3762095581291576e-02  3.4659609713437706e-02  3.5751267952549841e-02  3.7023143241364728e-02  3.8429843929050481e-02  3.9854262222164143e-02  4.1036145716211607e-02  4.1398402744460071e-02  3.9934881055883678e-02  4.0467928511025909e-02  4.1143059192331848e-02  4.0960157204020881e-02  3.9889077149507915e-02  3.8335921088686678e-02  3.6615432393101603e-02  3.4941126595799767e-02  3.3398193900768897e-02  3.2012603673520046e-02  3.0777295659561311e-02  2.9661671146907702e-02  2.8609894274326812e-02  2.7513458351435319e-02  2.6219819765641195e-02  2.4322529657856327e-02  2.1781778330493259e-02  2.9303868488091349e-02  3.1738473603396551e-02  3.3290936341160350e-02  3.3873275988415809e-02  3.3958012470219880e-02  3.3852866055549699e-02  3.3774610478218649e-02  3.3814239910845582e-02  3.4008949958877460e-02  3.4369464294333997e-02  3.4896179536131458e-02  3.5585267290856412e-02  3.6428244033481577e-02  3.7407618153424922e-02  3.8487259508644199e-02  3.9596613303444425e-02  4.0596405446817113e-02  4.1256884991358246e-02  4.1079783158634961e-02  3.9724603697515216e-02  4.0787330203656234e-02  4.1052829175838558e-02  4.0843026785494285e-02  4.0034993485920323e-02  3.8841357535381073e-02  3.7425818721926081e-02  3.5942821313468196e-02  3.4488094731616167e-02  3.3106384642846556e-02  3.1803100195967007e-02  3.0554898749228558e-02  2.9310867545373605e-02  2.7977558208704061e-02  2.6434126889887746e-02  2.4405080356007566e-02  2.1990292193842742e-02  2.9235957499012154e-02  3.1375225175215696e-02  3.3008056726315307e-02  3.3914481153122726e-02  3.4406131018679148e-02  3.4657384241352958e-02  3.4836533167804558e-02  3.5048181891585171e-02  3.5350207766697166e-02  3.5767735498218295e-02  3.6308775705961853e-02  3.6970252975041119e-02  3.7739117757846434e-02  3.8589341669851847e-02  3.9474778953243667e-02  4.0317401582615153e-02  4.0988170024677077e-02  4.1293536395515709e-02  4.0913344796302910e-02  3.9701822636698067e-02  4.1182219970142861e-02  4.1107817093445215e-02  4.0796219691226911e-02  4.0101782777197649e-02  3.9108110263833970e-02  3.7898274969100108e-02  3.6575231923472895e-02  3.5213460023388467e-02  3.3856275824716391e-02  3.2516009560243773e-02  3.1177804867217166e-02  2.9802138327624968e-02  2.8317321643093248e-02  2.6643382365535335e-02  2.4602778872484962e-02  2.2395660950036183e-02  2.9390435640413604e-02  3.1251579802071487e-02  3.2870019804103021e-02  3.3955330530736724e-02  3.4704349623734226e-02  3.5216361733880951e-02  3.5616088907988182e-02  3.5991161077220828e-02  3.6400046945641695e-02  3.6874547829147869e-02  3.7427636262271483e-02  3.8057914968895677e-02  3.