<?xml version="1.0"?>
<VTKFile type="UnstructuredGrid"  version="0.1"  >
<UnstructuredGrid>
<Piece  NumberOfPoints="5319" NumberOfCells="9708">
<Points>
<DataArray  type="Float64"  NumberOfComponents="3"  format="ascii">0 1 0  0 0.9916666666666667 0  0.008333333333333333 1 0  0.008333333333333333 0.9916666666666667 0  0.01666666666666667 1 0  0.01666666666666667 0.9916666666666667 0  0.025 1 0  0.025 0.9916666666666667 0  0.03333333333333333 1 0  0.03333333333333333 0.9916666666666667 0  0.04166666666666666 1 0  0.04166666666666666 0.9916666666666667 0  0.05 1 0  0.05 0.9916666666666667 0  0.05833333333333333 1 0  0.05833333333333333 0.9916666666666667 0  0.06666666666666667 1 0  0.06666666666666667 0.9916666666666667 0  0.25 1 0  0.25 0.9916666666666667 0  0.2583333333333334 1 0  0.2583333333333334 0.9916666666666667 0  0.2666666666666667 1 0  0.2666666666666667 0.9916666666666667 0  0.275 1 0  0.275 0.9916666666666667 0  0.2833333333333333 1 0  0.2833333333333333 0.9916666666666667 0  0.2916666666666667 1 0  0.2916666666666667 0.9916666666666667 0  0.3 1 0  0.3 0.9916666666666667 0  0.3083333333333333 1 0  0.3083333333333333 0.9916666666666667 0  0.3166666666666667 1 0  0.3166666666666667 0.9916666666666667 0  0.325 1 0  0.325 0.9916666666666667 0  0.3333333333333333 1 0  0.3333333333333333 0.9916666666666667 0  0 0.9833333333333333 0  0.008333333333333333 0.9833333333333333 0  0.01666666666666667 0.9833333333333333 0  0.025 0.9833333333333333 0  0.03333333333333333 0.9833333333333333 0  0.04166666666666666 0.9833333333333333 0  0.05 0.9833333333333333 0  0.05833333333333333 0.9833333333333333 0  0.06666666666666667 0.9833333333333333 0  0.25 0.9833333333333333 0  0.2583333333333334 0.9833333333333333 0  0.2666666666666667 0.9833333333333333 0  0.275 0.9833333333333333 0  0.2833333333333333 0.9833333333333333 0  0.2916666666666667 0.9833333333333333 0  0.3 0.9833333333333333 0  0.3083333333333333 0.9833333333333333 0  0.3166666666666667 0.9833333333333333 0  0.325 0.9833333333333333 0  0.3333333333333333 0.9833333333333333 0  0 0.975 0  0.008333333333333333 0.975 0  0.01666666666666667 0.975 0  0.025 0.975 0  0.03333333333333333 0.975 0  0.04166666666666666 0.975 0  0.05 0.975 0  0.05833333333333333 0.975 0  0.06666666666666667 0.975 0  0.25 0.975 0  0.2583333333333334 0.975 0  0.2666666666666667 0.975 0  0.275 0.975 0  0.2833333333333333 0.975 0  0.2916666666666667 0.975 0  0.3 0.975 0  0.3083333333333333 0.975 0  0.3166666666666667 0.975 0  0.325 0.975 0  0.3333333333333333 0.975 0  0 0.9666666666666667 0  0.008333333333333333 0.9666666666666667 0  0.01666666666666667 0.9666666666666667 0  0.025 0.9666666666666667 0  0.03333333333333333 0.9666666666666667 0  0.04166666666666666 0.9666666666666667 0  0.05 0.9666666666666667 0  0.05833333333333333 0.9666666666666667 0  0.06666666666666667 0.9666666666666667 0  0.25 0.9666666666666667 0  0.2583333333333334 0.9666666666666667 0  0.2666666666666667 0.9666666666666667 0  0.275 0.9666666666666667 0  0.2833333333333333 0.9666666666666667 0  0.2916666666666667 0.9666666666666667 0  0.3 0.9666666666666667 0  0.3083333333333333 0.9666666666666667 0  0.3166666666666667 0.9666666666666667 0  0.325 0.9666666666666667 0  0.3333333333333333 0.9666666666666667 0  0 0.9583333333333334 0  0.008333333333333333 0.9583333333333334 0  0.01666666666666667 0.9583333333333334 0  0.025 0.9583333333333334 0  0.03333333333333333 0.9583333333333334 0  0.04166666666666666 0.9583333333333334 0  0.05 0.9583333333333334 0  0.05833333333333333 0.9583333333333334 0  0.06666666666666667 0.9583333333333334 0  0.25 0.9583333333333334 0  0.2583333333333334 0.9583333333333334 0  0.2666666666666667 0.9583333333333334 0  0.275 0.9583333333333334 0  0.2833333333333333 0.9583333333333334 0  0.2916666666666667 0.9583333333333334 0  0.3 0.9583333333333334 0  0.3083333333333333 0.9583333333333334 0  0.3166666666666667 0.9583333333333334 0  0.325 0.9583333333333334 0  0.3333333333333333 0.9583333333333334 0  0 0.95 0  0.008333333333333333 0.95 0  0.01666666666666667 0.95 0  0.025 0.95 0  0.03333333333333333 0.95 0  0.04166666666666666 0.95 0  0.05 0.95 0  0.05833333333333333 0.95 0  0.06666666666666667 0.95 0  0.25 0.95 0  0.2583333333333334 0.95 0  0.2666666666666667 0.95 0  0.275 0.95 0  0.2833333333333333 0.95 0  0.2916666666666667 0.95 0  0.3 0.95 0  0.3083333333333333 0.95 0  0.3166666666666667 0.95 0  0.325 0.95 0  0.3333333333333333 0.95 0  0 0.9416666666666667 0  0.008333333333333333 0.9416666666666667 0  0.01666666666666667 0.9416666666666667 0  0.025 0.9416666666666667 0  0.03333333333333333 0.9416666666666667 0  0.04166666666666666 0.9416666666666667 0  0.05 0.9416666666666667 0  0.05833333333333333 0.9416666666666667 0  0.06666666666666667 0.9416666666666667 0  0.25 0.9416666666666667 0  0.2583333333333334 0.9416666666666667 0  0.2666666666666667 0.9416666666666667 0  0.275 0.9416666666666667 0  0.2833333333333333 0.9416666666666667 0  0.2916666666666667 0.9416666666666667 0  0.3 0.9416666666666667 0  0.3083333333333333 0.9416666666666667 0  0.3166666666666667 0.9416666666666667 0  0.325 0.9416666666666667 0  0.3333333333333333 0.9416666666666667 0  0 0.9333333333333333 0  0.008333333333333333 0.9333333333333333 0  0.01666666666666667 0.9333333333333333 0  0.025 0.9333333333333333 0  0.03333333333333333 0.9333333333333333 0  0.04166666666666666 0.9333333333333333 0  0.05 0.9333333333333333 0  0.05833333333333333 0.9333333333333333 0  0.06666666666666667 0.9333333333333333 0  0.25 0.9333333333333333 0  0.2583333333333334 0.9333333333333333 0  0.2666666666666667 0.9333333333333333 0  0.275 0.9333333333333333 0  0.2833333333333333 0.9333333333333333 0  0.2916666666666667 0.9333333333333333 0  0.3 0.9333333333333333 0  0.3083333333333333 0.9333333333333333 0  0.3166666666666667 0.9333333333333333 0  0.325 0.9333333333333333 0  0.3333333333333333 0.9333333333333333 0  0 0.925 0  0.008333333333333333 0.925 0  0.01666666666666667 0.925 0  0.025 0.925 0  0.03333333333333333 0.925 0  0.04166666666666666 0.925 0  0.05 0.925 0  0.05833333333333333 0.925 0  0.06666666666666667 0.925 0  0.25 0.925 0  0.2583333333333334 0.925 0  0.2666666666666667 0.925 0  0.275 0.925 0  0.2833333333333333 0.925 0  0.2916666666666667 0.925 0  0.3 0.925 0  0.3083333333333333 0.925 0  0.3166666666666667 0.925 0  0.325 0.925 0  0.3333333333333333 0.925 0  0 0.9166666666666666 0  0.008333333333333333 0.9166666666666666 0  0.01666666666666667 0.9166666666666666 0  0.025 0.9166666666666666 0  0.03333333333333333 0.9166666666666666 0  0.04166666666666666 0.9166666666666666 0  0.05 0.9166666666666666 0  0.05833333333333333 0.9166666666666666 0  0.06666666666666667 0.9166666666666666 0  0.25 0.9166666666666666 0  0.2583333333333334 0.9166666666666666 0  0.2666666666666667 0.9166666666666666 0  0.275 0.9166666666666666 0  0.2833333333333333 0.9166666666666666 0  0.2916666666666667 0.9166666666666666 0  0.3 0.9166666666666666 0  0.3083333333333333 0.9166666666666666 0  0.3166666666666667 0.9166666666666666 0  0.325 0.9166666666666666 0  0.3333333333333333 0.9166666666666666 0  0 0.9083333333333333 0  0.008333333333333333 0.9083333333333333 0  0.01666666666666667 0.9083333333333333 0  0.025 0.9083333333333333 0  0.03333333333333333 0.9083333333333333 0  0.04166666666666666 0.9083333333333333 0  0.05 0.9083333333333333 0  0.05833333333333333 0.9083333333333333 0  0.06666666666666667 0.9083333333333333 0  0.25 0.9083333333333333 0  0.2583333333333334 0.9083333333333333 0  0.2666666666666667 0.9083333333333333 0  0.275 0.9083333333333333 0  0.2833333333333333 0.9083333333333333 0  0.2916666666666667 0.9083333333333333 0  0.3 0.9083333333333333 0  0.3083333333333333 0.9083333333333333 0  0.3166666666666667 0.9083333333333333 0  0.325 0.9083333333333333 0  0.3333333333333333 0.9083333333333333 0  0 0.9 0  0.008333333333333333 0.9 0  0.01666666666666667 0.9 0  0.025 0.9 0  0.03333333333333333 0.9 0  0.04166666666666666 0.9 0  0.05 0.9 0  0.05833333333333333 0.9 0  0.06666666666666667 0.9 0  0.25 0.9 0  0.2583333333333334 0.9 0  0.2666666666666667 0.9 0  0.275 0.9 0  0.2833333333333333 0.9 0  0.2916666666666667 0.9 0  0.3 0.9 0  0.3083333333333333 0.9 0  0.3166666666666667 0.9 0  0.325 0.9 0  0.3333333333333333 0.9 0  0 0.8916666666666667 0  0.008333333333333333 0.8916666666666667 0  0.01666666666666667 0.8916666666666667 0  0.025 0.8916666666666667 0  0.03333333333333333 0.8916666666666667 0  0.04166666666666666 0.8916666666666667 0  0.05 0.8916666666666667 0  0.05833333333333333 0.8916666666666667 0  0.06666666666666667 0.8916666666666667 0  0.25 0.8916666666666667 0  0.2583333333333334 0.8916666666666667 0  0.2666666666666667 0.8916666666666667 0  0.275 0.8916666666666667 0  0.2833333333333333 0.8916666666666667 0  0.2916666666666667 0.8916666666666667 0  0.3 0.8916666666666667 0  0.3083333333333333 0.8916666666666667 0  0.3166666666666667 0.8916666666666667 0  0.325 0.8916666666666667 0  0.3333333333333333 0.8916666666666667 0  0 0.8833333333333333 0  0.008333333333333333 0.8833333333333333 0  0.01666666666666667 0.8833333333333333 0  0.025 0.8833333333333333 0  0.03333333333333333 0.8833333333333333 0  0.04166666666666666 0.8833333333333333 0  0.05 0.8833333333333333 0  0.05833333333333333 0.8833333333333333 0  0.06666666666666667 0.8833333333333333 0  0.25 0.8833333333333333 0  0.2583333333333334 0.8833333333333333 0  0.2666666666666667 0.8833333333333333 0  0.275 0.8833333333333333 0  0.2833333333333333 0.8833333333333333 0  0.2916666666666667 0.8833333333333333 0  0.3 0.8833333333333333 0  0.3083333333333333 0.8833333333333333 0  0.3166666666666667 0.8833333333333333 0  0.325 0.8833333333333333 0  0.3333333333333333 0.8833333333333333 0  0 0.875 0  0.008333333333333333 0.875 0  0.01666666666666667 0.875 0  0.025 0.875 0  0.03333333333333333 0.875 0  0.04166666666666666 0.875 0  0.05 0.875 0  0.05833333333333333 0.875 0  0.06666666666666667 0.875 0  0.25 0.875 0  0.2583333333333334 0.875 0  0.2666666666666667 0.875 0  0.275 0.875 0  
[...]
<PointData  Scalars="f_107"> 
<DataArray  type="Float64"  Name="f_107"  format="ascii">3.9197321596245844e-07  2.6619217718499216e-04  1.7340566662525499e-07  1.9519481843339632e-04  1.6423652978364190e-07  1.7584907248274014e-04  1.1362676675181288e-07  1.7126070263321630e-04  8.6478983235967558e-08  1.7438239789883240e-04  7.1239771339018675e-08  1.8418724831527586e-04  3.8362996169546101e-08  2.0280822466026979e-04  6.9668930789043680e-08  2.3712502409966283e-04  1.3438409067243214e-07  3.0591477197393357e-04  1.9011925914664112e-07  4.6410973277909943e-04  5.9539091974753519e-08  3.1781520980700564e-04  6.1464266944421221e-08  2.6227145078201952e-04  3.9230731221142256e-08  2.3065630541839631e-04  3.5100350077181558e-08  2.0927299493375383e-04  3.6352869834707668e-08  1.9385420836806017e-04  4.0776462653479694e-08  1.8303702556891376e-04  5.6866923302068712e-08  1.7707091492041215e-04  4.9070737243893094e-08  1.7803424170242146e-04  9.2289088226956471e-08  1.9166414575596548e-04  1.1629913779983557e-07  2.3314530009176554e-04  4.4707159542414895e-04  3.9332454791581153e-04  3.6512109037120920e-04  3.5907033478446758e-04  3.6670766040935283e-04  3.8611335771125395e-04  4.1908154551798665e-04  4.7100714084827549e-04  5.5202753393232746e-04  8.0017210015162954e-04  6.5165790338394787e-04  5.5060730887020886e-04  4.8609417837514653e-04  4.4060410929162521e-04  4.0678768528302383e-04  3.8176243171521838e-04  3.6519079745423247e-04  3.5896377558414417e-04  3.6777543099440069e-04  3.9998048991090229e-04  6.0896767164240475e-04  5.7855524076264465e-04  5.6027189318053224e-04  5.5847533002254099e-04  5.7171889540199054e-04  5.9878475063525143e-04  6.4046020437346501e-04  6.9918032817966236e-04  7.7749112389713946e-04  1.1035426037759298e-03  9.6160347055765079e-04  8.4549009174164917e-04  7.5663943277406575e-04  6.8894862372377824e-04  6.3613779880887186e-04  5.9473856833226312e-04  5.6352819858996911e-04  5.4302297047849920e-04  5.3507665208721365e-04  5.4133373763158099e-04  7.7027409737982831e-04  7.6086112606561177e-04  7.5689012855540186e-04  7.6396148019284671e-04  7.8388391279933100e-04  8.1701165148730321e-04  8.6365386462850836e-04  9.2414365012031673e-04  9.9707740076247927e-04  1.3969359574523528e-03  1.2593370790172328e-03  1.1369365048076020e-03  1.0335622811727696e-03  9.4822137496399113e-04  8.7783299688843372e-04  8.1952047850038429e-04  7.7148454933583942e-04  7.3281142935527907e-04  7.0276884995024798e-04  6.7880206958619786e-04  9.3740926175903832e-04  9.4521587652924188e-04  9.5511745416960504e-04  9.7221027425096985e-04  9.9929084166263380e-04  1.0375657110724852e-03  1.0873183871758525e-03  1.1479400289216468e-03  1.2168061252703357e-03  1.6886718331008117e-03  1.5520332659177917e-03  1.4253873308243846e-03  1.3123358967657287e-03  1.2135939902580750e-03  1.1279682192353272e-03  1.0535073273217749e-03  9.8825626122770144e-04  9.3032093153799268e-04  8.7726806789666394e-04  8.2453405285521373e-04  1.1119618520296513e-03  1.1333733431572012e-03  1.1552590627520308e-03  1.1817845907133551e-03  1.2157576459004057e-03  1.2586550090236152e-03  1.3108551270492894e-03  1.3716065071703342e-03  1.4384960611781806e-03  1.9818532009813240e-03  1.8433068772629577e-03  1.7123734565266402e-03  1.5917071618629011e-03  1.4822908288006996e-03  1.3836882261174328e-03  1.2945304069147735e-03  1.2129127939792465e-03  1.1364546799849939e-03  1.0618961747875567e-03  9.8409698681771593e-04  1.2935911535565297e-03  1.3256440081092730e-03  1.3574169713941979e-03  1.3921659662654068e-03  1.4323666962414092e-03  1.4794875411307886e-03  1.5340245850095715e-03  1.5954675938043283e-03  1.6621510973601488e-03  2.2773484442586461e-03  2.1348698181459557e-03  1.9990810924133229e-03  1.8715972936841374e-03  1.7531063519932346e-03  1.6433128848660538e-03  1.5410820504426156e-03  1.4445842410505995e-03  1.3512947169980972e-03  1.2577473561274078e-03  1.1590147804039156e-03  1.4813758052504204e-03  1.5217888205848005e-03  1.5615694778325158e-03  1.6032341423074664e-03  1.6488680027175169e-03  1.6998375434767767e-03  1.7567558450434922e-03  1.8194742740928122e-03  1.8871314622046923e-03  2.5750736325270990e-03  2.4274255237487475e-03  2.2862507170331794e-03  2.1522552489644515e-03  2.0256616282325808e-03  1.9060358394668857e-03  1.7922676315992574e-03  1.6825789081060035e-03  1.5744863735027317e-03  1.4646657899907705e-03  1.3487461683681988e-03  1.6743715346107487e-03  1.7214209181372609e-03  1.7676486602180596e-03  1.8150269901232665e-03  1.8653037979706084e-03  1.9197361005598506e-03  1.9790439538181965e-03  2.0434270105223517e-03  2.1126878534134153e-03  2.8745774471076349e-03  2.7211536710130134e-03  2.5742864291769503e-03  2.4339631373122188e-03  2.2999425416095234e-03  2.1715565461241904e-03  2.0476232506211412e-03  1.9263952596290819e-03  1.8055123755455905e-03  1.6819398379391323e-03  1.5519397254883242e-03  1.8717956368408117e-03  1.9241639821335210e-03  1.9755727022424045e-03  2.0276209966590803e-03  2.0818029477205472e-03  2.1392891464358031e-03  2.2008905078422522e-03  2.2670886104594044e-03  2.3381650829671741e-03  3.1753075382517366e-03  3.0159701295108554e-03  2.8633609395674548e-03  2.7169338183202349e-03  2.5760531784066467e-03  2.4398120963961432e-03  2.3069281309550721e-03  2.1756740389044064e-03  2.0438357842221901e-03  1.9086966208952270e-03  1.7670942985509445e-03  2.0730519877721057e-03  2.1296988573474137e-03  2.1852544523198137e-03  2.2410768536617444e-03  2.2984850226592155e-03  2.3585909384143356e-03  2.4222774663527334e-03  2.4902318812642290e-03  2.5630513108448561e-03  3.4767231649101365e-03  3.3116636232156257e-03  3.1534914883680752e-03  3.0012827673303682e-03  2.8540945903107644e-03  2.7108151341715668e-03  2.5700661890420830e-03  2.4301370196943206e-03  2.2889531174004325e-03  2.1440855547743085e-03  1.9928396811107378e-03  2.2776995231436727e-03  2.3377650991428349e-03  2.3966014555283481e-03  2.4554191451980748e-03  2.5154239730653576e-03  2.5776922064111906e-03  2.6431601158576137e-03  2.7126540383742965e-03  2.7869641130044000e-03  3.7783340178228191e-03  3.6079653689676692e-03  3.4445904260708288e-03  3.2870283691039380e-03  3.1341109906364555e-03  2.9845669140882700e-03  2.8369404286514147e-03  2.6895367389188503e-03  2.5404014928855456e-03  2.3873415698726264e-03  2.2280162921364073e-03  2.4854091630071846e-03  2.5481480349189619e-03  2.6095143351064225e-03  2.6706333154157087e-03  2.7326416368911774e-03  2.7965957583596991e-03  2.8634692717977098e-03  2.9341766734773222e-03  3.0096183434714791e-03  4.0797050619538191e-03  3.9045824911353760e-03  3.7364979527709230e-03  3.5741028198415809e-03  3.4160716559670738e-03  3.2610171629264897e-03  3.1074272083868467e-03  2.9536231748996389e-03  2.7977481135722159e-03  2.6377905452491489e-03  2.4716648702786241e-03  2.6959261384496562e-03  2.7606641942118600e-03  2.8238859357504428e-03  2.8866703581109151e-03  2.9501139799119635e-03  3.0152632811211361e-03  3.0831164522954896e-03  3.1546405747544881e-03  3.2307945605200249e-03  4.3804473629907329e-03  4.2012122894455814e-03  4.0290030512767586e-03  3.8623658821222507e-03  3.6998706232875939e-03  3.5400506243728515e-03  3.3813562870967252e-03  3.2221252161737531e-03  3.0605764169937951e-03  2.8948326024426530e-03  2.7229853525941091e-03  2.9090421665227038e-03  2.9751496048597507e-03  3.0396016168427057e-03  3.1034540590942853e-03  3.1677812346086217e-03  3.2336251101699048e-03  3.3019991194878531e-03  3.3738997322300189e-03  3.4503142755511486e-03  4.6802047067845349e-03  4.4975468048260685e-03  4.3218567787703995e-03  4.1516181446888227e-03  3.9853343455328177e-03  3.8214875949581797e-03  3.6585059027095519e-03  3.4947426596239066e-03  3.3284746328368156e-03  3.1579208178193065e-03  2.9812924311416757e-03  3.1245769286810140e-03  3.1914518216324618e-03  3.2565404221995085e-03  3.3208882740144705e-03  3.3855578795965618e-03  3.4515893749355367e-03  3.5200049653147289e-03  3.5918162757787630e-03  3.6680227242301723e-03  4.9786405580198520e-03  4.7932728713822410e-03  4.6147807028616072e-03  4.4416124983245233e-03  4.2722320374750516e-03  4.1050908924440141e-03  3.9386057193114546e-03  3.7711448139577234e-03  3.6010282199849465e-03  3.4265426557681822e-03  3.2459783843683046e-03  3.3423667680837375e-03  3.4094251893714389e-03  3.4745767509556549e-03  3.5388632265750978e-03  3.6033409716230811e-03  3.6690493674180948e-03  3.7370151485778117e-03  3.8082568635484228e-03  3.8837778919194946e-03  5.2754271955733796e-03  5.0880704463956853e-03  4.9074723264441195e-03  4.7320635332496509e-03  4.5602860791230052e-03  4.3905750428134376e-03  4.2213432767546346e-03  4.0509727984880117e-03  3.8778158658760243e-03  3.7002062697195615e-03  3.5164856843787396e-03  3.5622584279869380e-03  3.6289284960231605e-03  3.6935822400577072e-03  3.7572605961282372e-03  3.8210165904596924e-03  3.8858890932702921e-03  3.9529067230369115e-03  4.0230904828909139e-03  4.0974441170517134e-03  5.5702375082605183e-03  5.3816106546347667e-03  5.1996087132354599e-03  5.0226550231403794e-03  4.8491813274724981e-03  4.6776155214505307e-03  4.5063714811581258e-03  4.3338436123512474e-03  4.1584081760273313e-03  3.9784315423465203e-03  3.7922885039537303e-03  3.7841060633111091e-03  3.8498242316769102e-03  3.9134276839614358e-03  3.9759575181711722e-03  4.0384646690612780e-03  4.1019873686815077e-03  4.1675545489574597e-03  4.2361874195145366e-03  4.3088887996426545e-03  5.8627393038333314e-03  5.6735542205474596e-03  5.4908490970164798e-03  5.3130458365249229e-03  5.1385729852039333e-03  4.9658570821827725e-03  4.7933158791161664e-03  4.6193548117293903e-03  4.4423681647434814e-03  4.2607449320943300e-03  4.0728811854340826e-03  4.0077702556415877e-03  4.0719788538477290e-03  4.1339849077984599e-03  4.1948297404337705e-03  4.2555626203503753e-03  4.3172208950023362e-03  4.3808329257162592e-03  4.4474191110132994e-03  4.5179811058398038e-03  6.1525917343965243e-03  5.9635505420840233e-03  5.7808369657719495e-03  5.6028746452962321e-03  5.4280930696772129e-03  5.2549208670799544e-03  5.0817811721647899e-03  4.9070891579799415e-03  4.7292528316060303e-03  4.5466770703897477e-03  4.3577716974091286e-03  4.2331181902658969e-03  4.2952636468240315e-03  4.3551285674576848e-03  4.4137541813198339e-03  4.4721881453276798e-03  4.5314666788064438e-03  4.5926171065627805e-03  4.6566586335989625e-03  4.7245919053254355e-03  6.4394433854591407e-03  6.2512374400035004e-03  6.0692019154508234e-03  5.8917637605053032e-03  5.7173556915790747e-03  5.5444103225402910e-03  5.3713568228274432e-03  5.1966189346667867e-03  5.0186153162009063e-03  4.8357622024481350e-03  4.6464784470076096e-03  4.4600244719892462e-03  4.5195559127742700e-03  4.5767378801465988e-03  4.6326110953639746e-03  4.6882215242997202e-03  4.7446040674579771e-03  4.8027847918973125e-03  4.8637816266838396e-03  4.9285944492927286e-03  6.7229316108515826e-03  6.5362415125521326e-03  6.3555614391650663e-03  6.1793223615207414e-03  6.0059613964075749e-03  5.8339160911679957e-03  5.6616218018924356e-03  5.4875098303262329e-03  5.3100073040605756e-03  5.1275387867412529e-03  4.9385292351060610e-03  4.6883722723931789e-03  4.7447403382539126e-03  4.7986983014555009e-03  4.8512859977907731e-03  4.9035476053200210e-03  4.9565165811475027e-03  5.0112176525907758e-03  5.0686675157158639e-03  5.1298654884205956e-03  7.0026827663037224e-03  6.8181789870308757e-03  6.6395227365737440e-03  6.4651493192428152e-03  6.2935008068559766e-03  6.1230200906153120e-03  5.9521486105228952e-03  5.7793243922310174e-03  5.6029814930600033e-03  5.4215507782934243e-03  5.2334615160666443e-03  4.9180546381091036e-03  4.9707104486995573e-03  5.0209031675693093e-03  5.0696714531491271e-03  5.1180576314115997e-03  5.1670936547142197e-03  5.2178029077565571e-03  5.2712009400997361e-03  5.3282866569490358e-03  7.2783130720000047e-03  7.0966569566261375e-03  6.9206845802877170e-03  6.7488357579167258e-03  6.5795577658614669e-03  6.4112989818653219e-03  6.2425067325639679e-03  6.0716251084406668e-03  5.8970940233985395e-03  5.7173492892805804e-03  5.5308234153809014e-03  5.1489758714676507e-03  5.1973701054396949e-03  5.2432553193156751e-03  5.2876687965391746e-03  5.3316509951727466e-03  5.3762323564540727e-03  5.4224349669548194e-03  5.4712733280031373e-03  5.5237460282810827e-03  7.5494299054047753e-03  7.3712749048253879e-03  7.1986392504304079e-03  7.0299674565594021e-03  6.8637121374442904e-03  6.6983272000723064e-03  6.5322656636658122e-03  6.3639771944857112e-03  6.1919068342624183e-03  6.0144944430146020e-03  5.8301751682751550e-03  5.3810529409398832e-03  5.4246350236796543e-03  5.4656687212403261e-03  5.5051898301847124e-03  5.5442369737591889e-03  5.5838391220576862e-03  5.6250171402903943e-03  5.6687845844050786e-03  5.7161397949109715e-03  7.8156333848967054e-03  7.6416264402742210e-03  7.4729745369830208e-03  7.3081271597223371e-03  7.1455423842634192e-03  6.9836796869103962e-03  6.8209976427929591e-03  6.6559511623657608e-03  6.4869899456688638e-03  6.3125573207613063e-03  6.1310907842543330e-03  5.6142169030342750e-03  5.6524343026124642e-03  5.6880700853528584e-03  5.7221585210415803e-03  5.7557364747732849e-03  5.7898315246977519e-03  5.8254634177033514e-03  5.8636448750499061e-03  5.9053740524960766e-03  8.0765181514287111e-03  7.9073011863136488e-03  7.7432758065621721e-03  7.5828968462695939e-03  7.4246280102127846e-03  7.2669344320020497e-03  7.1082801880960056e-03  6.9471252425310917e-03  6.7819236829296456e-03  6.6111219542533406e-03  6.4331598338080095e-03  5.8484143289744593e-03  5.8807119648857410e-03  5.9104005061528719e-03  5.9385127143700518e-03  5.9660838101406330e-03  5.9941400927821338e-03  6.0237003186375520e-03  6.0557764992463878e-03  6.0913666825527651e-03  8.3316752907647250e-03  8.1678867888535737e-03  8.0091281319998302e-03  7.8538599916454267e-03  7.7005519336403724e-03  7.5476749053284449e-03  7.3936985176497111e-03  7.2370877195905127e-03  7.0763008698027756e-03  6.9097873490022478e-03  6.7359893092907566e-03  6.0836087342781772e-03  6.1094285050312938e-03  6.1326171111113232e-03  6.1542058716146835e-03  6.1752285073110149e-03  6.1967101818693263e-03  6.2196688138561260e-03  6.2451158505556501e-03  6.2740493357331482e-03  8.5806943648537044e-03  8.4229710226083627e-03  8.2701184870775362e-03  8.1206038515137056e-03  7.9729028408674820e-03  7.8254924430382448e-03  7.6768479180002250e-03  7.5254392325273855e-03  7.3697290190583064e-03  7.2081695416742362e-03  7.0392055442408579e-03  6.3197820106294109e-03  6.3385624468670840e-03  6.3546947288175117e-03  6.3692088369064846e-03  6.3831371627204253e-03  6.3975039046210427e-03  6.4133263217396137e-03  6.4316154677343737e-03  6.4533695210923165e-03  8.8231655397096216e-03  8.6721439889227269e-03  8.5258380135594374e-03  8.3827217908631225e-03  8.2412775591851305e-03  8.0999886351121580e-03  7.9573361100702886e-03  7.8117950815375092e-03  7.6618325487016643e-03  7.5059037040822989e-03  7.3424561927508411e-03  6.5569358590252640e-03  6.5681119092686271e-03  6.5766275753284149e-03  6.5835116338975978e-03  6.5897953398274915e-03  6.5965021211521506e-03  6.6046487816169641e-03  6.6152461797952585e-03  6.6292928080040813e-03  9.0586818106917922e-03  8.9150004088114996e-03  8.7758843724932423e-03  8.6398156813445905e-03  8.5052834820199784e-03  8.3707777538482141e-03  8.2347856522935504e-03  8.0957875766633092e-03  7.9522550502110559e-03  7.8026463103450334e-03  7.6454122788461075e-03  6.7950932220308853e-03  6.7980961785809296e-03  6.7984309577027472e-03  6.7971252927168735e-03  6.7952095122199357e-03  6.7937064909730175e-03  6.7936328064063783e-03  6.7959993493233129e-03  6.8018051474091675e-03  9.2868413359106575e-03  9.1511420229772097e-03  9.0198641962580001e-03  8.8914983898035378e-03  8.7645410753201276e-03  8.6374892560228001e-03  8.5088364141764749e-03  8.3770684581469159e-03  8.2406616328233907e-03  8.0980773847870655e-03  7.9477703289907078e-03  7.0342997115382441e-03  7.0285572845404662e-03  7.0201429921389570e-03  7.0100837051434795e-03  6.9994090506978112e-03  6.9891415864891150e-03  6.9802979160394464e-03  6.9738892175992447e-03  6.9709153183545704e-03  9.5072498958642254e-03  9.3801801170351421e-03  9.2573956619403080e-03  9.1373963820788641e-03  9.0186864925070921e-03  8.8997703879081722e-03  8.7791481490875900e-03  8.6553114146077446e-03  8.5267413656284069e-03  8.3919028476231242e-03  8.2492546011838589e-03  7.2746250268824666e-03  7.2595615750056346e-03  7.2418263324733117e-03  7.2224455043691125e-03  7.2024482515634057e-03  7.1828570665027182e-03  7.1646888517956303e-03  7.1489553538075798e-03  7.1366575044901175e-03  9.7195235032784613e-03  9.6017381954945236e-03  9.4881112103594560e-03  9.3771524677802257e-03  9.2673743249134938e-03  9.1572889203305162e-03  9.0454031922974406e-03  8.9302147224338581e-03  8.8102098371762531e-03  8.6838569741745451e-03  8.5496194230108395e-03  7.5161643565885231e-03  7.4912012830933529e-03  7.4635699029783793e-03  7.4342959638144853e-03  7.4044084014084702e-03  7.3749299062387348e-03  7.3468779697758073e-03  7.3212652087156329e-03  7.2990940033455408e-03  9.9232911921664849e-03  9.8154548326564763e-03  9.7116604385395766e-03  9.6104287137028094e-03  9.5102805150074719e-03  9.4097360400538684e-03  9.3073093086060241e-03  9.2015040278303119e-03  9.0908118504782545e-03  8.9737049817206187e-03  8.8486516492089374e-03  7.7590397554156091e-03  7.7235960785032656e-03  7.6854906274057338e-03  7.6457489073118150e-03  7.6053998714075552e-03  7.5654666780321502e-03  7.5269677092747178e-03  7.4909167706892384e-03  7.4583180687541988e-03  1.0118198019830663e-02  1.0020986732841467e-02  9.9277131967578213e-03  9.8369095556638930e-03  9.7471054605721297e-03  9.6568294235458429e-03  9.5646027128715536e-03  9.4689352914894519e-03  9.3683242695922712e-03  9.2612457562463828e-03  9.1461732471523911e-03  8.0034014867400895e-03  7.9568945928938442e-03  7.9077351440354927e-03  7.8569486205346886e-03  7.8055642314621698e-03  7.7546058739337729e-03  7.7050931287431981e-03  7.6580413187176373e-03  7.6144568836065954e-03  1.0303908320252750e-02  1.0218012036507242e-02  1.0135962924577970e-02  1.0056305140767547e-02  9.9775773391268894e-03  9.8983165192947538e-03  9.8170512860602539e-03  9.7322979145711280e-03  9.6425590323020172e-03  9.5463147293320082e-03  9.4420440162701902e-03  8.2494293186798733e-03  8.1912759071702933e-03  8.1304814941395888e-03  8.0680717508519861e-03  8.0050763714870788e-03  7.9425202580994027e-03  7.8814244983303229e-03  7.8228062631801928e-03  7.7676746560780144e-03  1.0480109252290893e-02  1.0406233913043860e-02  1.0336130263578793e-02  1.0268354934360182e-02  1.0201455683071068e-02  1.0133978065052465e-02  1.0064458008799102e-02  9.9914180633712008e-03  9.9133663415681104e-03  9.8287869131727778e-03  9.7361644447804437e-03  8.4973337607324312e-03  8.4269509864822248e-03  8.3539407687647921e-03  8.2793291798239060e-03  8.2041466136987488e-03  8.1294192329179355e-03  8.0561699336288341e-03  7.9854180603274542e-03  7.9181758274424596e-03  1.0646514691488144e-02  1.0585384485445550e-02  1.0527966987828537e-02  1.0472831628158999e-02  1.0418535237137436e-02  1.0363631866456342e-02  1.0306664633595421e-02  1.0246162208499308e-02  1.0180638046284041e-02  1.0108580099117257e-02  1.0028478704182131e-02  8.7473572261094912e-03  8.6641640466504927e-03  8.5783586961370503e-03  8.4909678493863792e-03  8.4030227959865193e-03  8.3155511984197572e-03  8.2295780501956250e-03  8.1461251807991367e-03  8.0662083734305643e-03  1.0802869520192595e-02  1.0755229136707560e-02  1.0711260296522581e-02  1.0669545388119603e-02  1.0628650130606224e-02  1.0587136863230585e-02  1.0543555615669544e-02  1.0496440892376042e-02  1.0444311219243286e-02  1.0385658222035847e-02  1.0318977778589590e-02  8.9997751034510270e-03  8.9031938337008256e-03  8.8040171493418418e-03  8.7032725194451186e-03  8.6019923023721127e-03  8.5012058796205252e-03  8.4019406126826617e-03  8.3052211059148444e-03  8.2120671736970931e-03  1.094895437713656