<?xml version="1.0"?>
<VTKFile type="UnstructuredGrid"  version="0.1"  >
<UnstructuredGrid>
<Piece  NumberOfPoints="14654" NumberOfCells="26298">
<Points>
<DataArray  type="Float64"  NumberOfComponents="3"  format="ascii">0 1 0  0 0.9966666666666667 0  0.003333333333333334 1 0  0.003333333333333334 0.9966666666666667 0  0.006666666666666667 1 0  0.006666666666666667 0.9966666666666667 0  0.01 1 0  0.01 0.9966666666666667 0  0.01333333333333333 1 0  0.01333333333333333 0.9966666666666667 0  0.01666666666666667 1 0  0.01666666666666667 0.9966666666666667 0  0.02 1 0  0.02 0.9966666666666667 0  0.02333333333333333 1 0  0.02333333333333333 0.9966666666666667 0  0.02666666666666667 1 0  0.02666666666666667 0.9966666666666667 0  0.03 1 0  0.03 0.9966666666666667 0  0.29 1 0  0.29 0.9966666666666667 0  0.2933333333333333 1 0  0.2933333333333333 0.9966666666666667 0  0.2966666666666667 1 0  0.2966666666666667 0.9966666666666667 0  0.3 1 0  0.3 0.9966666666666667 0  0.3033333333333333 1 0  0.3033333333333333 0.9966666666666667 0  0.3066666666666666 1 0  0.3066666666666666 0.9966666666666667 0  0.31 1 0  0.31 0.9966666666666667 0  0.3133333333333334 1 0  0.3133333333333334 0.9966666666666667 0  0.3166666666666667 1 0  0.3166666666666667 0.9966666666666667 0  0.32 1 0  0.32 0.9966666666666667 0  0.3233333333333333 1 0  0.3233333333333333 0.9966666666666667 0  0.3266666666666667 1 0  0.3266666666666667 0.9966666666666667 0  0.33 1 0  0.33 0.9966666666666667 0  0.3333333333333333 1 0  0.3333333333333333 0.9966666666666667 0  0 0.9933333333333333 0  0.003333333333333334 0.9933333333333333 0  0.006666666666666667 0.9933333333333333 0  0.01 0.9933333333333333 0  0.01333333333333333 0.9933333333333333 0  0.01666666666666667 0.9933333333333333 0  0.02 0.9933333333333333 0  0.02333333333333333 0.9933333333333333 0  0.02666666666666667 0.9933333333333333 0  0.03 0.9933333333333333 0  0.29 0.9933333333333333 0  0.2933333333333333 0.9933333333333333 0  0.2966666666666667 0.9933333333333333 0  0.3 0.9933333333333333 0  0.3033333333333333 0.9933333333333333 0  0.3066666666666666 0.9933333333333333 0  0.31 0.9933333333333333 0  0.3133333333333334 0.9933333333333333 0  0.3166666666666667 0.9933333333333333 0  0.32 0.9933333333333333 0  0.3233333333333333 0.9933333333333333 0  0.3266666666666667 0.9933333333333333 0  0.33 0.9933333333333333 0  0.3333333333333333 0.9933333333333333 0  0 0.99 0  0.003333333333333334 0.99 0  0.006666666666666667 0.99 0  0.01 0.99 0  0.01333333333333333 0.99 0  0.01666666666666667 0.99 0  0.02 0.99 0  0.02333333333333333 0.99 0  0.02666666666666667 0.99 0  0.03 0.99 0  0.29 0.99 0  0.2933333333333333 0.99 0  0.2966666666666667 0.99 0  0.3 0.99 0  0.3033333333333333 0.99 0  0.3066666666666666 0.99 0  0.31 0.99 0  0.3133333333333334 0.99 0  0.3166666666666667 0.99 0  0.32 0.99 0  0.3233333333333333 0.99 0  0.3266666666666667 0.99 0  0.33 0.99 0  0.3333333333333333 0.99 0  0 0.9866666666666667 0  0.003333333333333334 0.9866666666666667 0  0.006666666666666667 0.9866666666666667 0  0.01 0.9866666666666667 0  0.01333333333333333 0.9866666666666667 0  0.01666666666666667 0.9866666666666667 0  0.02 0.9866666666666667 0  0.02333333333333333 0.9866666666666667 0  0.02666666666666667 0.9866666666666667 0  0.03 0.9866666666666667 0  0.29 0.9866666666666667 0  0.2933333333333333 0.9866666666666667 0  0.2966666666666667 0.9866666666666667 0  0.3 0.9866666666666667 0  0.3033333333333333 0.9866666666666667 0  0.3066666666666666 0.9866666666666667 0  0.31 0.9866666666666667 0  0.3133333333333334 0.9866666666666667 0  0.3166666666666667 0.9866666666666667 0  0.32 0.9866666666666667 0  0.3233333333333333 0.9866666666666667 0  0.3266666666666667 0.9866666666666667 0  0.33 0.9866666666666667 0  0.3333333333333333 0.9866666666666667 0  0 0.9833333333333333 0  0.003333333333333334 0.9833333333333333 0  0.006666666666666667 0.9833333333333333 0  0.01 0.9833333333333333 0  0.01333333333333333 0.9833333333333333 0  0.01666666666666667 0.9833333333333333 0  0.02 0.9833333333333333 0  0.02333333333333333 0.9833333333333333 0  0.02666666666666667 0.9833333333333333 0  0.03 0.9833333333333333 0  0.29 0.9833333333333333 0  0.2933333333333333 0.9833333333333333 0  0.2966666666666667 0.9833333333333333 0  0.3 0.9833333333333333 0  0.3033333333333333 0.9833333333333333 0  0.3066666666666666 0.9833333333333333 0  0.31 0.9833333333333333 0  0.3133333333333334 0.9833333333333333 0  0.3166666666666667 0.9833333333333333 0  0.32 0.9833333333333333 0  0.3233333333333333 0.9833333333333333 0  0.3266666666666667 0.9833333333333333 0  0.33 0.9833333333333333 0  0.3333333333333333 0.9833333333333333 0  0 0.98 0  0.003333333333333334 0.98 0  0.006666666666666667 0.98 0  0.01 0.98 0  0.01333333333333333 0.98 0  0.01666666666666667 0.98 0  0.02 0.98 0  0.02333333333333333 0.98 0  0.02666666666666667 0.98 0  0.03 0.98 0  0.29 0.98 0  0.2933333333333333 0.98 0  0.2966666666666667 0.98 0  0.3 0.98 0  0.3033333333333333 0.98 0  0.3066666666666666 0.98 0  0.31 0.98 0  0.3133333333333334 0.98 0  0.3166666666666667 0.98 0  0.32 0.98 0  0.3233333333333333 0.98 0  0.3266666666666667 0.98 0  0.33 0.98 0  0.3333333333333333 0.98 0  0 0.9766666666666667 0  0.003333333333333334 0.9766666666666667 0  0.006666666666666667 0.9766666666666667 0  0.01 0.9766666666666667 0  0.01333333333333333 0.9766666666666667 0  0.01666666666666667 0.9766666666666667 0  0.02 0.9766666666666667 0  0.02333333333333333 0.9766666666666667 0  0.02666666666666667 0.9766666666666667 0  0.03 0.9766666666666667 0  0.29 0.9766666666666667 0  0.2933333333333333 0.9766666666666667 0  0.2966666666666667 0.9766666666666667 0  0.3 0.9766666666666667 0  0.3033333333333333 0.9766666666666667 0  0.3066666666666666 0.9766666666666667 0  0.31 0.9766666666666667 0  0.3133333333333334 0.9766666666666667 0  0.3166666666666667 0.9766666666666667 0  0.32 0.9766666666666667 0  0.3233333333333333 0.9766666666666667 0  0.3266666666666667 0.9766666666666667 0  0.33 0.9766666666666667 0  0.3333333333333333 0.9766666666666667 0  0 0.9733333333333334 0  0.003333333333333334 0.9733333333333334 0  0.006666666666666667 0.9733333333333334 0  0.01 0.9733333333333334 0  0.01333333333333333 0.9733333333333334 0  0.01666666666666667 0.9733333333333334 0  0.02 0.9733333333333334 0  0.02333333333333333 0.9733333333333334 0  0.02666666666666667 0.9733333333333334 0  0.03 0.9733333333333334 0  0.29 0.9733333333333334 0  0.2933333333333333 0.9733333333333334 0  0.2966666666666667 0.9733333333333334 0  0.3 0.9733333333333334 0  0.3033333333333333 0.9733333333333334 0  0.3066666666666666 0.9733333333333334 0  0.31 0.9733333333333334 0  0.3133333333333334 0.9733333333333334 0  0.3166666666666667 0.9733333333333334 0  0.32 0.9733333333333334 0  0.3233333333333333 0.9733333333333334 0  0.3266666666666667 0.9733333333333334 0  0.33 0.9733333333333334 0  0.3333333333333333 0.9733333333333334 0  0 0.97 0  0.003333333333333334 0.97 0  0.006666666666666667 0.97 0  0.01 0.97 0  0.01333333333333333 0.97 0  0.01666666666666667 0.97 0  0.02 0.97 0  0.02333333333333333 0.97 0  0.02666666666666667 0.97 0  0.03 0.97 0  0.29 0.97 0  0.2933333333333333 0.97 0  0.2966666666666667 0.97 0  0.3 0.97 0  0.3033333333333333 0.97 0  0.3066666666666666 0.97 0  0.31 0.97 0  0.3133333333333334 0.97 0  0.3166666666666667 0.97 0  0.32 0.97 0  0.3233333333333333 0.97 0  0.3266666666666667 0.97 0  0.33 0.97 0  0.3333333333333333 0.97 0  0 0.9666666666666667 0  0.003333333333333334 0.9666666666666667 0  0.006666666666666667 0.9666666666666667 0  0.01 0.9666666666666667 0  0.01333333333333333 0.9666666666666667 0  0.01666666666666667 0.9666666666666667 0  0.02 0.9666666666666667 0  0.02333333333333333 0.9666666666666667 0  0.02666666666666667 0.9666666666666667 0  0.03 0.9666666666666667 0  0.29 0.9666666666666667 0  0.2933333333333333 0.9666666666666667 0  0.2966666666666667 0.9666666666666667 0  0.3 0.9666666666666667 0  0.3033333333333333 0.9666666666666667 0  0.3066666666666666 0.9666666666666667 0  0.31 0.9666666666666667 0  0.3133333333333334 0.9666666666666667 0  0.3166666666666667 0.9666666666666667 0  0.32 0.9666666666666667 0  0.3233333333333333 0.9666666666666667 0  0.3266666666666667 0.9666666666666667 0  0.33 0.9666666666666667 0  0.3333333333333333 0.9666666666666667 0  0 0.9633333333333334 0  0.003333333333333334 0.9633333333333334 0  0.006666666666666667 0.9633333333333334 0  0.01 0.9633333333333334 0  0.01333333333333333 0.9633333333333334 0  0.01666666666666667 0.9633333333333334 0  0.02 0.9633333333333334 0  0.02333333333333333 0.9633333333333334 0  0.02666666666666667 0.9633333333333334 0  0.03 0.9633333333333334 0  0.29 0.9633333333333334 0  0.2933333333333333 0.9633333333333334 0  0.2966666666666667 0.9633333333333334 0  0.3 0.9633333333333334 0  0.3033333333333333 0.9633333333333334 0  0.3066666666666666 0.9633333333333334 0  0.31 0.9633333333333334 0  0.3133333333333334 0.9633333333333334 0  0.3166666666666667 0.9633333333333334 0  0.32 0.9633333333333334 0  0.3233333333333333 0.9633333333333334 0  0.3266666666666667 0.9633333333333334 0  0.33 0.9633333333333334 0  0.3333333333333333 0.9633333333333334 0  0 0.96 0  0.003333333333333334 0.96 0  0.006666666666666667 0.96 0  0.01 0.96 0  0.01333333333333333 0.96 0  0.01666666666666667 0.96 0  0.02 0.96 0  0.02333333333333333 0.96 0  0.02666666666666667 0.96 0  0.03 0.96 0  0.29 0.96 0  0.2933333333333333 0.96 0  0.2966666666666667 0.96 0  0.3 0.96 0  0.3033333333333333 0.96 0  0.3066666666666666 0.96 0  0.31 0.96 0  0.3133333333333334 0.96 0  0.3166666666666667 0.96 0  0.32 0.96 0  0.3233333333333333 0.96 0  0.3266666666666667 0.96 0  0.33 0.96 0  0.3333333333333333 0.96 0  0 0.9566666666666667 0  0.003333333333333334 0.9566666666666667 0  0.006666666666666667 0.9566666666666667 0  0.01 0.9566666666666667 0  0.01333333333333333 0.9566666666666667 0  0.01666666666666667 0.9566666666666667 0  0.02 0.9566666666666667 0  0.02333333333333333 0.9566666666666667 0  0.02666666666666667 0.956666666666
[...]
<PointData  Scalars="f_164"> 
<DataArray  type="Float64"  Name="f_164"  format="ascii">-1.5431587894623737e-16  3.6411531492929922e-16  -6.7087205244704080e-17  1.6011770305017733e-16  -4.3886218506693794e-17  1.4024496141040057e-16  5.3213594910974217e-18  2.2296616986484198e-17  8.7443607978267521e-18  -2.0689766605342955e-17  2.1387814600306072e-19  -8.3109346066875552e-18  -1.8773565309127936e-18  4.2357980352213934e-18  1.9696029325661128e-19  1.1908523378871533e-18  3.2672879055252361e-19  -1.0064193474768519e-18  -1.6965441316233226e-19  1.2580035772140902e-20  -1.3252074531636953e-16  3.4915456270736405e-16  -5.5234158823476979e-17  1.1808128869079562e-16  -6.7372265170893807e-17  1.4756769302326704e-16  -5.8747195051867215e-17  1.1153977942708686e-16  -7.6506058582170180e-17  1.3664096760504623e-16  -7.1669209052324689e-17  1.5808541019356094e-16  -3.4041356929641014e-17  1.1219592471931828e-16  1.9979690122922330e-18  2.4763766089621004e-17  8.1694307978982389e-18  -1.7821710060626265e-17  3.3778991966467692e-19  -7.8544617990469144e-18  -1.6769226995158701e-18  3.5948379908616899e-18  1.2629903406677664e-19  1.2038856308202014e-18  3.0667140253377596e-19  -8.9765708452948419e-19  -1.4744317495236329e-19  -1.1785052629049488e-20  -1.1922727140454048e-15  -5.7916935134224182e-16  -6.6449405910756327e-16  -2.4841660564009049e-16  3.3646567931726912e-17  6.2440629031608609e-17  -5.0792917651923226e-18  -1.1551935792425653e-17  2.8578393150144904e-18  1.4535553123781272e-18  -1.3344168080700241e-15  -4.3207620011967982e-16  -5.8537888361586452e-16  -4.0704191864723776e-16  -4.2028595832082083e-16  -5.3393178329605675e-16  -5.1524230255515986e-16  -2.3507185606195538e-16  2.4158432782888478e-17  5.5695123480103235e-17  -2.8487013336207172e-18  -1.0730617663471298e-17  2.3607466376670857e-18  1.4001248547180608e-18  4.0024431633042739e-15  1.9727082543617145e-15  2.8348416088652992e-15  1.6793460383019044e-15  2.7945950831761967e-16  -2.9696978968064072e-16  -7.7240559463520754e-17  6.0902753386957656e-17  5.2036634446665617e-18  -1.2436751845116403e-17  5.1763609653087051e-15  1.6725688603217640e-15  2.3724481806841022e-15  1.7132942580640163e-15  1.4755146233057776e-15  1.7389940815303704e-15  2.1053985013233869e-15  1.4847776184527591e-15  2.7977769688233809e-16  -2.5229361702681120e-16  -7.7510683443408520e-17  5.3898009436685810e-17  6.1749276184146330e-18  -1.1315143181954721e-17  -1.4317598487922599e-14  -6.2251021432905397e-15  -1.0676990089661669e-14  -8.7404504457439394e-15  -3.5370162365027508e-15  6.9265297568413211e-16  7.9085961658227725e-16  -1.4871056077388599e-16  -1.2803783597138767e-16  5.7043950238958173e-17  -2.0137652787637726e-14  -6.4656169583940102e-15  -9.3521123413396775e-15  -7.2509847774152279e-15  -5.8843227726955973e-15  -5.5937254297654349e-15  -7.4669344424290195e-15  -7.3400541796432123e-15  -3.2034735706619901e-15  5.0323681122108790e-16  7.2840432123786059e-16  -1.1779103513376734e-16  -1.2068194666426157e-16  4.9419385724846824e-17  5.4609329740074454e-14  1.9872011155368467e-14  3.6498038864292191e-14  3.7721904399484104e-14  2.4420616953975795e-14  2.8904723884805760e-15  -4.2827233413018537e-15  -6.3216642395781962e-16  8.7794581406680473e-16  -8.4158604535187094e-17  7.8243003116029838e-14  2.5168893280637238e-14  3.6265643773072828e-14  2.9518614969767802e-14  2.5137986370009658e-14  1.9823851591974260e-14  2.3875249496905966e-14  3.0015744184222211e-14  2.1104812786951323e-14  3.1882906901071895e-15  -3.7601263878651046e-15  -6.6594101517908380e-16  7.8857752541480884e-16  -5.6187133075429786e-17  -2.1327585381016660e-13  -6.9903274226549216e-14  -1.1989346067881790e-13  -1.3978659582883966e-13  -1.2804604585093145e-13  -4.6812565978644005e-14  1.2176201295904692e-14  9.7783201951176119e-15  -3.2226931799439342e-15  -1.0519082792186809e-15  -3.0313842555724575e-13  -9.8259863456287707e-14  -1.4065887337061008e-13  -1.1580476821850311e-13  -1.0610745462443384e-13  -8.0927622607258903e-14  -7.5550674609042999e-14  -1.0447975827639752e-13  -1.0578778049072490e-13  -4.3501603355009097e-14  9.7274095747200239e-15  9.0793579450837996e-15  -2.7227762776629963e-15  -1.0480877447733749e-15  8.3043091084671662e-13  2.6721071536365373e-13  4.1089690358918325e-13  4.6178368051945228e-13  5.5065545771955866e-13  3.4207745784005398e-13  2.7356693244380490e-14  -6.1987404283460906e-14  -7.2113523794583893e-16  1.1085103011601529e-14  1.1739821907617011e-12  3.8156254318915988e-13  5.4838204007975489e-13  4.4820129476498963e-13  4.2760938379822896e-13  3.5111113343436140e-13  2.7115089348068271e-13  3.2386143396835158e-13  4.3046457710867622e-13  3.0112291049590344e-13  3.1653977073098540e-14  -5.5024353413735413e-14  -2.0303601507802182e-15  1.0213111106212054e-14  -3.2669676994790592e-12  -1.0183816712591923e-12  -1.5430313073219139e-12  -1.4615477751909245e-12  -2.0110266127268731e-12  -1.8289346302702139e-12  -6.2668365590447347e-13  2.1708980756433673e-13  1.0624453863897169e-13  -5.7571052954610932e-14  -4.5597029174934423e-12  -1.4720884439489205e-12  -2.1382527570139630e-12  -1.7428845845918304e-12  -1.6658509662869645e-12  -1.4772055418588347e-12  -1.1411864587945432e-12  -1.0042131722759638e-12  -1.4605404692380733e-12  -1.5369637991111053e-12  -5.8260283420036329e-13  1.8035460845989388e-13  1.0136112758039644e-13  -5.0724306035612512e-14  1.3417590337308339e-11  3.6952741456187319e-12  6.1273732625268771e-12  4.9326364089017108e-12  6.5180275781838094e-12  7.8261753653993317e-12  4.8924097692934866e-12  1.1010283775472053e-13  -8.5757185483614660e-13  1.2329440791400847e-13  1.7797209954465030e-11  5.6656011238157288e-12  8.3093404804341288e-12  6.8052045069213169e-12  6.4596233890855887e-12  5.8797618565235040e-12  5.0117883024782087e-12  3.6944871375086700e-12  4.3375064967306023e-12  6.2125872790076710e-12  4.3207513314926934e-12  1.9869797679161211e-13  -7.7621354459036230e-13  9.5471190248227399e-14  -5.8250581687824821e-11  -1.3189270463892284e-11  -2.4241988638917616e-11  -1.8588748512183652e-11  -2.0647891699425047e-11  -2.7746511156061798e-11  -2.6781017140815239e-11  -8.0541013919255893e-12  3.7682402992799973e-12  8.2045923786491820e-13  -6.9896636879462107e-11  -2.1829061088733662e-11  -3.2239304727618287e-11  -2.6477202584761749e-11  -2.5241850984680658e-11  -2.2792120162399822e-11  -2.0814806160159860e-11  -1.6211780648088748e-11  -1.3159037345102132e-11  -2.0308322410284159e-11  -2.2627954823636811e-11  -7.5882717878075231e-12  3.2537943658959243e-12  8.2760199856618800e-13  2.6328464041848953e-10  4.9589900149467873e-11  9.4925428477701172e-11  7.2481874923734860e-11  7.2880486816281093e-11  8.5891459061429129e-11  1.1367231377159873e-10  7.0095816486587248e-11  -3.7609439005466692e-12  -1.0867386723991218e-11  2.7578508942688355e-10  8.4727822036445730e-11  1.2491967502475583e-10  1.0284747541020013e-10  9.8382350823313104e-11  8.9073249935926200e-11  8.1396742937703489e-11  7.1604444674737207e-11  5.0933807279070834e-11  5.6508526215675230e-11  9.0578306639030980e-11  6.2552677890380708e-11  -2.1683360140789922e-12  -1.0016244824256477e-11  -1.2156733756790078e-09  -2.0248184272151173e-10  -3.8182777491976051e-10  -2.7236531191682910e-10  -2.8750111576845244e-10  -2.6891849890278087e-10  -3.8458865319817679e-10  -3.9890497668254262e-10  -9.6746173575284376e-11  6.4369268308614428e-11  -1.0832001263402621e-09  -3.3553470870722508e-10  -4.8181128999488065e-10  -4.0121369178393747e-10  -3.8045667921293697e-10  -3.5003909750361692e-10  -3.1614552472586346e-10  -2.8930570118846661e-10  -2.3562493026847625e-10  -1.6872006630316259e-10  -2.7837584515359919e-10  -3.4121892155270940e-10  -9.2290889803075886e-11  5.7098950243337650e-11  5.6108665157251685e-09  9.1242639168674769e-10  1.5870912746731693e-09  1.0342072008566068e-09  1.1019062579311767e-09  1.0190218857591645e-09  1.1078069307464719e-09  1.6679846911949272e-09  1.0230118654156449e-09  -1.7433398817603787e-10  4.1600079328969628e-09  1.3672385765661262e-09  1.8504681805490844e-09  1.5675004628505299e-09  1.4742825066259084e-09  1.3584805317062188e-09  1.2509006564950742e-09  1.1148472976785899e-09  1.0197561768341498e-09  7.2948092031385694e-10  6.8939791943223104e-10  1.3437093064905518e-09  9.2113997325300259e-10  -1.4365900500146366e-10  -2.4910618674198767e-08  -4.6818799139223951e-09  -6.5724810081938497e-09  -4.3123906147476199e-09  -3.9276570361597765e-09  -4.1771431703577744e-09  -3.5902817182036255e-09  -5.0900592911292881e-09  -6.2651740223223161e-09  -8.7089672293315115e-10  -1.5185432381220319e-08  -5.7129461214767253e-09  -7.0822266163185906e-09  -6.1379755076921863e-09  -5.7087529748071216e-09  -5.2812526885082426e-09  -4.8643178881356907e-09  -4.4482292579911891e-09  -3.9060601354968906e-09  -3.5318745120417106e-09  -2.1498201095361914e-09  -3.6126617224041116e-09  -5.4405372425177827e-09  -8.5284308713411348e-10  1.0246434805080968e-07  2.5376128653250463e-08  2.7674957605270925e-08  1.8254681306201532e-08  1.5498501951108979e-08  1.4420860592166832e-08  1.6039009040654486e-08  1.2643054913562722e-08  2.4976964951796961e-08  1.5884038639588025e-08  5.0461395291513471e-08  2.3958541652931955e-08  2.7059547564003452e-08  2.4067027005967931e-08  2.2133836987903657e-08  2.0496126087659775e-08  1.8931697867999600e-08  1.7374310219113947e-08  1.5719695398291720e-08  1.3562165710207216e-08  1.1935724509933309e-08  6.6888535419878674e-09  2.0544366918567569e-08  1.4299512066335465e-08  2.0368609944583014e-04  1.3666469909102898e-04  1.1174390042428440e-04  9.8243227187837622e-05  9.0155559218043339e-05  8.5777655417741255e-05  8.4912434037522899e-05  8.8542167173422451e-05  9.9614675885179352e-05  1.2600675973241889e-04  1.6957380834692321e-04  1.1587564603965245e-04  9.8600450694139301e-05  9.0644837158335230e-05  8.6778197485163478e-05  8.5360975180492329e-05  8.5781297242351200e-05  8.7867949553158749e-05  9.1751126535515013e-05  9.7906974581122734e-05  1.0739214709127155e-04  1.2245179633675526e-04  1.4815863868481436e-04  1.9755217585052133e-04  3.4618308667132991e-04  2.8128664724373263e-04  2.3656105992961540e-04  2.0920987914388898e-04  1.9153631819374069e-04  1.8070328394546417e-04  1.7606513433069987e-04  1.7842792159637009e-04  1.9005414320950664e-04  2.1503365047869226e-04  2.7779700834662069e-04  2.2972060740272847e-04  1.9996580170160210e-04  1.8519806693420045e-04  1.7831588699865575e-04  1.7640845515889402e-04  1.7826143767076864e-04  1.8348347223516584e-04  1.9223373335056028e-04  2.0521403266140546e-04  2.2384728566812517e-04  2.5067582224876539e-04  2.9012647465135927e-04  3.4997140483876090e-04  4.7528029573876330e-04  4.1547631224733857e-04  3.6567209123608839e-04  3.2826873885162885e-04  3.0148157759524608e-04  2.8309405297648850e-04  2.7221316190518332e-04  2.6902336621873108e-04  2.7438607314690715e-04  2.8897066087993080e-04  3.6423642021479280e-04  3.2641200747465354e-04  2.9833088640895332e-04  2.8150199677381434e-04  2.7379516748233119e-04  2.7273904783634283e-04  2.7696231465484505e-04  2.8593003844417725e-04  2.9971672365999803e-04  3.1894009874963182e-04  3.4479645520236243e-04  3.7914460797272814e-04  4.2453622612180963e-04  4.8372330707971672e-04  6.0203291826792856e-04  5.4548923655356474e-04  4.9414212908119944e-04  4.5104469601293462e-04  4.1679340521694782e-04  3.9076939229045507e-04  3.7229978126534824e-04  3.6107875376331156e-04  3.5683760094650657e-04  3.5827664053317992e-04  4.4019651561868768e-04  4.1312144954153921e-04  3.9140561822199421e-04  3.7763909272522938e-04  3.7191627796151770e-04  3.7326106569297065e-04  3.8069240740238984e-04  3.9370284038843111e-04  4.1225624947776332e-04  4.3673285330314863e-04  4.6786809471542645e-04  5.0663536978797852e-04  5.5391495726884424e-04  6.0942311433379959e-04  7.3021300451062577e-04  6.7472233899913453e-04  6.2215446449157767e-04  5.7514758661957998e-04  5.3495508355309981e-04  5.0180035936308091e-04  4.7538664665573103e-04  4.5519806447211924e-04  4.4033516926901778e-04  4.2872694165580931e-04  5.1150770934530972e-04  4.9478923383943375e-04  4.8109122455939458e-04  4.7304621260065027e-04  4.7161416198519265e-04  4.7677733491715288e-04  4.8812501866686179e-04  5.0531871269441460e-04  5.2825481286140419e-04  5.5706333369186613e-04  5.9201807291027334e-04  6.3334096945164616e-04  6.8078187528258576e-04  7.3266151678758897e-04  8.6099800308017996e-04  8.0469654771592538e-04  7.5031636222263438e-04  6.9985069293976700e-04  6.5453493448416140e-04  6.1485912355530232e-04  5.8073936343216244e-04  5.5163189665621869e-04  5.2642810028678540e-04  5.0300343532147312e-04  5.8156073446094319e-04  5.7450451333872622e-04  5.6923486454770237e-04  5.6808121261952963e-04  5.7227026538297367e-04  5.8226168498611182e-04  5.9805533601722089e-04  6.1950795928902998e-04  6.4649966708342119e-04  6.7896794883703742e-04  7.1682967874435878e-04  7.5978954449125110e-04  8.0697699013806013e-04  8.5629349167905895e-04  9.9453723411705558e-04  9.3604372242535403e-04  8.7909719023678186e-04  8.2507791019179532e-04  7.7497111319536883e-04  7.2925183289168172e-04  6.8790074373076206e-04  6.5041119025430855e-04  6.1571560871756482e-04  5.8197780161634688e-04  6.5230497328729931e-04  6.5412826246214275e-04  6.5712091958703149e-04  6.6321305871996569e-04  6.7362375392684775e-04  6.8899835271912910e-04  7.0956336295966154e-04  7.3531659095607983e-04  7.6614738956987029e-04  8.0187274767788014e-04  8.4218147197444261e-04  8.8648517820062516e-04  9.3366208468841582e-04  9.8168764194413714e-04  1.1306178155130106e-03  1.0689865075648789e-03  1.0088124099497016e-03  9.5097666523269355e-04  8.9617038997132428e-04  8.4474612770106192e-04  7.9667156491440951e-04  7.5149367161737044e-04  7.0829373624159084e-04  6.6562597594219325e-04  7.2477864947302205e-04  7.3471171837576239e-04  7.4554058663001328e-04  7.5880040422814305e-04  7.7558089577195411e-04  7.9655206515929946e-04  8.2203455957601933e-04  8.5210294572091736e-04  8.8665965954267474e-04  9.2546046502141571e-04  9.6807807081426931e-04  1.0138034673616290e-03  1.0614936868186162e-03  1.1094042618957831e-03  1.2689475747695278e-03  1.2035743801954400e-03  1.1396764791003606e-03  1.0777611855187946e-03  1.0182569003676081e-03  9.6137265936784174e-04  9.0703550709669519e-04  8.5484602379826071e-04  8.0405768775898643e-04  7.5359160628634184e-04  7.9945407647792394e-04  8.1679420318112007e-04  8.3494188279944993e-04  8.5508104687140264e-04  8.7812735779016775e-04  9.0469371251470320e-04  9.3511384530453406e-04  9.6949060794203085e-04  1.0077358659773563e-03  1.0495850927339256e-03  1.0945761522092050e-03  1.1419939557203245e-03  1.1907983438148469e-03  1.2395798800808368e-03  1.4092664694057915e-03  1.3397961286843658e-03  1.2718422343926540e-03  1.2056481279228252e-03  1.1414346748362470e-03  1.0792836127519912e-03  1.0190791530369141e-03  9.6046947225867708e-04  9.0286307340466500e-04  8.4547532892008447e-04  8.7647352232470834e-04  9.0061017198520693e-04  9.2555828275539098e-04  9.5220672026667826e-04  9.8129200771003176e-04  1.0133346966802090e-03  1.0486379942514386e-03  1.0873032386973863e-03  1.1292479125616863e-03  1.1742128548291105e-03  1.2217525036920141e-03  1.2712114870355141e-03  1.3217058196433866e-03  1.3721444303886328e-03  1.5513803803611891e-03  1.4776301325929941e-03  1.4054254952165209e-03  1.3348323529647349e-03  1.2659198125919556e-03  1.1986704714248299e-03  1.1329337041573043e-03  1.0683972713173876e-03  1.0045932327765426e-03  9.4095153623740993e-04  9.5580630300529058e-04  9.8622720039783060e-04  1.0175012650310072e-03  1.0502786890732715e-03  1.0851314317671034e-03  1.1224789098798742e-03  1.1625744750034250e-03  1.2055026910988205e-03  1.2511846275028804e-03  1.2993810913409464e-03  1.3496911246324086e-03  1.4015496103455879e-03  1.4542396115099700e-03  1.5069428509780086e-03  1.6951618890846255e-03  1.6170642200373203e-03  1.5405196044807371e-03  1.4654800909131413e-03  1.3919102633393164e-03  1.3197218889310900e-03  1.2487399010086395e-03  1.1786836122698243e-03  1.1091764547316988e-03  1.0397948676444974e-03  1.0373479981451458e-03  1.0736333251861827e-03  1.1108208395410536e-03  1.1493733727074051e-03  1.1897214195807290e-03  1.2321886528168697e-03  1.2769737863867312e-03  1.3241388995281645e-03  1.3736081464885608e-03  1.4251693255230128e-03  1.4784778581420383e-03  1.5330666639971351e-03  1.5883738639461975e-03  1.6438010106407607e-03  1.8405389679886218e-03  1.7581011019482382e-03  1.6772038375955311e-03  1.5977298145364151e-03  1.5195754803017604e-03  1.4426055661480219e-03  1.3666300176441329e-03  1.2913927191416828e-03  1.2165814504341451e-03  1.1418680772948796e-03  1.1209788105470654e-03  1.1627891021186178e-03  1.2055423395145874e-03  1.2495581972966766e-03  1.2951510815186111e-03  1.3425610277944082e-03  1.3919352610687464e-03  1.4433131894427986e-03  1.4966223361363793e-03  1.5516795279549179e-03  1.6081980715449546e-03  1.6658035924107673e-03  1.7240669809301232e-03  1.7825593774660545e-03  1.9874810205931827e-03  1.9007574682952848e-03  1.8155481595737296e-03  1.7316960263884602e-03  1.6490556773375476e-03  1.5674629719693196e-03  1.4867203293655231e-03  1.4065907292962027e-03  1.3268060374271775e-03  1.2470985406844973e-03  1.2065946300826116e-03  1.2536562970447138e-03  1.3016871014660761e-03  1.3509002474222456e-03  1.4015182894864518e-03  1.4537119881062482e-03  1.5075838955655584e-03  1.5631532819991869e-03  1.6203514929539308e-03  1.6790233287516511e-03  1.7389356613382520e-03  1.7997950572839194e-03  1.8612800613342791e-03  1.9230880631105507e-03  2.1359861558003165e-03  2.0450607408162534e-03  1.9556157979396436e-03  1.8674736319026937e-03  1.7804651071608364e-03  1.6944102155529049e-03  1.6091092949669554e-03  1.5243404801273035e-03  1.4398657438120630e-03  1.3554555276881399e-03  1.2941208737755690e-03  1.3462118118225952e-03  1.3992828429257498e-03  1.4534702576222596e-03  1.5089261251514674e-03  1.5657659688404079e-03  1.6240555280342124e-03  1.6837974015778522e-03  1.7449270155929723e-03  1.8073143576109554e-03  1.8707727816233216e-03  1.9350758619766136e-03  1.9999859431875538e-03  2.0652914172420394e-03  2.2860709564372673e-03  2.1910453756089385e-03  2.0974645234047057e-03  2.0051418665795349e-03  1.9138964688520991e-03  1.8235413196846686e-03  1.7338784547463704e-03  1.6446985503933108e-03  1.5557847143046497e-03  1.4669323689018145e-03  1.3835160939350995e-03  1.4404527102342881e-03  1.4983677773981762e-03  1.5573438425361380e-03  1.6174802314003441e-03  1.6788495289850943e-03  1.7414880250891387e-03  1.8053849920825012e-03  1.8704798456742160e-03  1.9366642007526275e-03  2.0037900347634027e-03  2.0716843550638614e-03  2.1401726950709393e-03  2.2091070466648548e-03  2.4377628322392558e-03  2.3387495350046263e-03  2.2411471922951236e-03  2.1447674281314384e-03  2.0494250960632300e-03  1.9549319839803811e-03  1.8610943554979778e-03  1.7677138367961970e-03  1.6745893096392873e-03  1.5815339860436387e-03  1.4747699252189448e-03  1.5363961527964328e-03  1.5989911117130840e-03  1.6626012279790227e-03  1.7272869764981920e-03  1.7930878330832825e-03  1.8600166461860811e-03  1.9280520087243862e-03  1.9971368678440662e-03  2.0671807904739108e-03  2.1380669662820666e-03  2.2096639942527003e-03  2.2818439890836080e-03  2.3545021360209949e-03  2.5910945903933232e-03  2.4882124100333984e-03  2.3867118974814252e-03  2.2864068019647606e-03  2.1871124171960309e-03  2.0886429849650968e-03  1.9908106421210126e-03  1.8934270851718785e-03  1.7963040125663116e-03  1.6992688844104261e-03  1.5678981846541755e-03  1.6340765969686413e-03  1.7012115755947652e-03  1.7693262652131794e-03  1.8384523283967330e-03  1.9086031197972750e-03  1.9797722378061431e-03  2.0519292628522665e-03  2.1250199083857751e-03  2.1989683502202022e-03  2.2736827424621737e-03  2.3490638357311624e-03  2.4250178329550277e-03  2.5014687004315168e-03  2.7461007373259694e-03  2.6394722184529817e-03  2.5342019408045339e-03  2.4301079098501387e-03  2.3270086015022024e-03  2.2247229284289554e-03  