<?xml version="1.0"?>
<VTKFile type="UnstructuredGrid"  version="0.1"  >
<UnstructuredGrid>
<Piece  NumberOfPoints="14654" NumberOfCells="26298">
<Points>
<DataArray  type="Float64"  NumberOfComponents="3"  format="ascii">0 1 0  0 0.9966666666666667 0  0.003333333333333334 1 0  0.003333333333333334 0.9966666666666667 0  0.006666666666666667 1 0  0.006666666666666667 0.9966666666666667 0  0.01 1 0  0.01 0.9966666666666667 0  0.01333333333333333 1 0  0.01333333333333333 0.9966666666666667 0  0.01666666666666667 1 0  0.01666666666666667 0.9966666666666667 0  0.02 1 0  0.02 0.9966666666666667 0  0.02333333333333333 1 0  0.02333333333333333 0.9966666666666667 0  0.02666666666666667 1 0  0.02666666666666667 0.9966666666666667 0  0.03 1 0  0.03 0.9966666666666667 0  0.29 1 0  0.29 0.9966666666666667 0  0.2933333333333333 1 0  0.2933333333333333 0.9966666666666667 0  0.2966666666666667 1 0  0.2966666666666667 0.9966666666666667 0  0.3 1 0  0.3 0.9966666666666667 0  0.3033333333333333 1 0  0.3033333333333333 0.9966666666666667 0  0.3066666666666666 1 0  0.3066666666666666 0.9966666666666667 0  0.31 1 0  0.31 0.9966666666666667 0  0.3133333333333334 1 0  0.3133333333333334 0.9966666666666667 0  0.3166666666666667 1 0  0.3166666666666667 0.9966666666666667 0  0.32 1 0  0.32 0.9966666666666667 0  0.3233333333333333 1 0  0.3233333333333333 0.9966666666666667 0  0.3266666666666667 1 0  0.3266666666666667 0.9966666666666667 0  0.33 1 0  0.33 0.9966666666666667 0  0.3333333333333333 1 0  0.3333333333333333 0.9966666666666667 0  0 0.9933333333333333 0  0.003333333333333334 0.9933333333333333 0  0.006666666666666667 0.9933333333333333 0  0.01 0.9933333333333333 0  0.01333333333333333 0.9933333333333333 0  0.01666666666666667 0.9933333333333333 0  0.02 0.9933333333333333 0  0.02333333333333333 0.9933333333333333 0  0.02666666666666667 0.9933333333333333 0  0.03 0.9933333333333333 0  0.29 0.9933333333333333 0  0.2933333333333333 0.9933333333333333 0  0.2966666666666667 0.9933333333333333 0  0.3 0.9933333333333333 0  0.3033333333333333 0.9933333333333333 0  0.3066666666666666 0.9933333333333333 0  0.31 0.9933333333333333 0  0.3133333333333334 0.9933333333333333 0  0.3166666666666667 0.9933333333333333 0  0.32 0.9933333333333333 0  0.3233333333333333 0.9933333333333333 0  0.3266666666666667 0.9933333333333333 0  0.33 0.9933333333333333 0  0.3333333333333333 0.9933333333333333 0  0 0.99 0  0.003333333333333334 0.99 0  0.006666666666666667 0.99 0  0.01 0.99 0  0.01333333333333333 0.99 0  0.01666666666666667 0.99 0  0.02 0.99 0  0.02333333333333333 0.99 0  0.02666666666666667 0.99 0  0.03 0.99 0  0.29 0.99 0  0.2933333333333333 0.99 0  0.2966666666666667 0.99 0  0.3 0.99 0  0.3033333333333333 0.99 0  0.3066666666666666 0.99 0  0.31 0.99 0  0.3133333333333334 0.99 0  0.3166666666666667 0.99 0  0.32 0.99 0  0.3233333333333333 0.99 0  0.3266666666666667 0.99 0  0.33 0.99 0  0.3333333333333333 0.99 0  0 0.9866666666666667 0  0.003333333333333334 0.9866666666666667 0  0.006666666666666667 0.9866666666666667 0  0.01 0.9866666666666667 0  0.01333333333333333 0.9866666666666667 0  0.01666666666666667 0.9866666666666667 0  0.02 0.9866666666666667 0  0.02333333333333333 0.9866666666666667 0  0.02666666666666667 0.9866666666666667 0  0.03 0.9866666666666667 0  0.29 0.9866666666666667 0  0.2933333333333333 0.9866666666666667 0  0.2966666666666667 0.9866666666666667 0  0.3 0.9866666666666667 0  0.3033333333333333 0.9866666666666667 0  0.3066666666666666 0.9866666666666667 0  0.31 0.9866666666666667 0  0.3133333333333334 0.9866666666666667 0  0.3166666666666667 0.9866666666666667 0  0.32 0.9866666666666667 0  0.3233333333333333 0.9866666666666667 0  0.3266666666666667 0.9866666666666667 0  0.33 0.9866666666666667 0  0.3333333333333333 0.9866666666666667 0  0 0.9833333333333333 0  0.003333333333333334 0.9833333333333333 0  0.006666666666666667 0.9833333333333333 0  0.01 0.9833333333333333 0  0.01333333333333333 0.9833333333333333 0  0.01666666666666667 0.9833333333333333 0  0.02 0.9833333333333333 0  0.02333333333333333 0.9833333333333333 0  0.02666666666666667 0.9833333333333333 0  0.03 0.9833333333333333 0  0.29 0.9833333333333333 0  0.2933333333333333 0.9833333333333333 0  0.2966666666666667 0.9833333333333333 0  0.3 0.9833333333333333 0  0.3033333333333333 0.9833333333333333 0  0.3066666666666666 0.9833333333333333 0  0.31 0.9833333333333333 0  0.3133333333333334 0.9833333333333333 0  0.3166666666666667 0.9833333333333333 0  0.32 0.9833333333333333 0  0.3233333333333333 0.9833333333333333 0  0.3266666666666667 0.9833333333333333 0  0.33 0.9833333333333333 0  0.3333333333333333 0.9833333333333333 0  0 0.98 0  0.003333333333333334 0.98 0  0.006666666666666667 0.98 0  0.01 0.98 0  0.01333333333333333 0.98 0  0.01666666666666667 0.98 0  0.02 0.98 0  0.02333333333333333 0.98 0  0.02666666666666667 0.98 0  0.03 0.98 0  0.29 0.98 0  0.2933333333333333 0.98 0  0.2966666666666667 0.98 0  0.3 0.98 0  0.3033333333333333 0.98 0  0.3066666666666666 0.98 0  0.31 0.98 0  0.3133333333333334 0.98 0  0.3166666666666667 0.98 0  0.32 0.98 0  0.3233333333333333 0.98 0  0.3266666666666667 0.98 0  0.33 0.98 0  0.3333333333333333 0.98 0  0 0.9766666666666667 0  0.003333333333333334 0.9766666666666667 0  0.006666666666666667 0.9766666666666667 0  0.01 0.9766666666666667 0  0.01333333333333333 0.9766666666666667 0  0.01666666666666667 0.9766666666666667 0  0.02 0.9766666666666667 0  0.02333333333333333 0.9766666666666667 0  0.02666666666666667 0.9766666666666667 0  0.03 0.9766666666666667 0  0.29 0.9766666666666667 0  0.2933333333333333 0.9766666666666667 0  0.2966666666666667 0.9766666666666667 0  0.3 0.9766666666666667 0  0.3033333333333333 0.9766666666666667 0  0.3066666666666666 0.9766666666666667 0  0.31 0.9766666666666667 0  0.3133333333333334 0.9766666666666667 0  0.3166666666666667 0.9766666666666667 0  0.32 0.9766666666666667 0  0.3233333333333333 0.9766666666666667 0  0.3266666666666667 0.9766666666666667 0  0.33 0.9766666666666667 0  0.3333333333333333 0.9766666666666667 0  0 0.9733333333333334 0  0.003333333333333334 0.9733333333333334 0  0.006666666666666667 0.9733333333333334 0  0.01 0.9733333333333334 0  0.01333333333333333 0.9733333333333334 0  0.01666666666666667 0.9733333333333334 0  0.02 0.9733333333333334 0  0.02333333333333333 0.9733333333333334 0  0.02666666666666667 0.9733333333333334 0  0.03 0.9733333333333334 0  0.29 0.9733333333333334 0  0.2933333333333333 0.9733333333333334 0  0.2966666666666667 0.9733333333333334 0  0.3 0.9733333333333334 0  0.3033333333333333 0.9733333333333334 0  0.3066666666666666 0.9733333333333334 0  0.31 0.9733333333333334 0  0.3133333333333334 0.9733333333333334 0  0.3166666666666667 0.9733333333333334 0  0.32 0.9733333333333334 0  0.3233333333333333 0.9733333333333334 0  0.3266666666666667 0.9733333333333334 0  0.33 0.9733333333333334 0  0.3333333333333333 0.9733333333333334 0  0 0.97 0  0.003333333333333334 0.97 0  0.006666666666666667 0.97 0  0.01 0.97 0  0.01333333333333333 0.97 0  0.01666666666666667 0.97 0  0.02 0.97 0  0.02333333333333333 0.97 0  0.02666666666666667 0.97 0  0.03 0.97 0  0.29 0.97 0  0.2933333333333333 0.97 0  0.2966666666666667 0.97 0  0.3 0.97 0  0.3033333333333333 0.97 0  0.3066666666666666 0.97 0  0.31 0.97 0  0.3133333333333334 0.97 0  0.3166666666666667 0.97 0  0.32 0.97 0  0.3233333333333333 0.97 0  0.3266666666666667 0.97 0  0.33 0.97 0  0.3333333333333333 0.97 0  0 0.9666666666666667 0  0.003333333333333334 0.9666666666666667 0  0.006666666666666667 0.9666666666666667 0  0.01 0.9666666666666667 0  0.01333333333333333 0.9666666666666667 0  0.01666666666666667 0.9666666666666667 0  0.02 0.9666666666666667 0  0.02333333333333333 0.9666666666666667 0  0.02666666666666667 0.9666666666666667 0  0.03 0.9666666666666667 0  0.29 0.9666666666666667 0  0.2933333333333333 0.9666666666666667 0  0.2966666666666667 0.9666666666666667 0  0.3 0.9666666666666667 0  0.3033333333333333 0.9666666666666667 0  0.3066666666666666 0.9666666666666667 0  0.31 0.9666666666666667 0  0.3133333333333334 0.9666666666666667 0  0.3166666666666667 0.9666666666666667 0  0.32 0.9666666666666667 0  0.3233333333333333 0.9666666666666667 0  0.3266666666666667 0.9666666666666667 0  0.33 0.9666666666666667 0  0.3333333333333333 0.9666666666666667 0  0 0.9633333333333334 0  0.003333333333333334 0.9633333333333334 0  0.006666666666666667 0.9633333333333334 0  0.01 0.9633333333333334 0  0.01333333333333333 0.9633333333333334 0  0.01666666666666667 0.9633333333333334 0  0.02 0.9633333333333334 0  0.02333333333333333 0.9633333333333334 0  0.02666666666666667 0.9633333333333334 0  0.03 0.9633333333333334 0  0.29 0.9633333333333334 0  0.2933333333333333 0.9633333333333334 0  0.2966666666666667 0.9633333333333334 0  0.3 0.9633333333333334 0  0.3033333333333333 0.9633333333333334 0  0.3066666666666666 0.9633333333333334 0  0.31 0.9633333333333334 0  0.3133333333333334 0.9633333333333334 0  0.3166666666666667 0.9633333333333334 0  0.32 0.9633333333333334 0  0.3233333333333333 0.9633333333333334 0  0.3266666666666667 0.9633333333333334 0  0.33 0.9633333333333334 0  0.3333333333333333 0.9633333333333334 0  0 0.96 0  0.003333333333333334 0.96 0  0.006666666666666667 0.96 0  0.01 0.96 0  0.01333333333333333 0.96 0  0.01666666666666667 0.96 0  0.02 0.96 0  0.02333333333333333 0.96 0  0.02666666666666667 0.96 0  0.03 0.96 0  0.29 0.96 0  0.2933333333333333 0.96 0  0.2966666666666667 0.96 0  0.3 0.96 0  0.3033333333333333 0.96 0  0.3066666666666666 0.96 0  0.31 0.96 0  0.3133333333333334 0.96 0  0.3166666666666667 0.96 0  0.32 0.96 0  0.3233333333333333 0.96 0  0.3266666666666667 0.96 0  0.33 0.96 0  0.3333333333333333 0.96 0  0 0.9566666666666667 0  0.003333333333333334 0.9566666666666667 0  0.006666666666666667 0.9566666666666667 0  0.01 0.9566666666666667 0  0.01333333333333333 0.9566666666666667 0  0.01666666666666667 0.9566666666666667 0  0.02 0.9566666666666667 0  0.02333333333333333 0.9566666666666667 0  0.02666666666666667 0.956666666666
[...]
<PointData  Scalars="f_178"> 
<DataArray  type="Float64"  Name="f_178"  format="ascii">-2.5637100164340958e-10  6.2806353470265993e-10  -1.0352041668219995e-10  2.5047044427658938e-10  -7.1437611367285923e-11  2.2399511227535829e-10  6.1786641011555764e-12  3.8988598117021834e-11  1.2660431445405102e-11  -2.8136000459548151e-11  9.6647978050502370e-13  -1.3417865817497474e-11  -2.7092610532595229e-12  5.5428412799096107e-12  1.5301287831296356e-13  2.0251955504599687e-12  4.8851384807771466e-13  -1.3738605828079548e-12  -2.1355096499736200e-13  -6.1411918082990713e-14  -2.2863117841948013e-10  5.6582462788915446e-10  -1.2339339560447645e-10  2.3604674069662151e-10  -1.7958605741888689e-10  3.3824206403599147e-10  -2.0687536990976433e-10  3.6565049097779090e-10  -2.5124343932006035e-10  4.7039036712097395e-10  -2.1437514018625843e-10  4.9396520588722053e-10  -9.6675418881571344e-11  3.2311964377236935e-10  3.2144668471822524e-12  7.2486949541882817e-11  2.1183031686883410e-11  -4.4384156486085431e-11  1.5750200911153768e-12  -2.1559682043713641e-11  -4.2065470460687292e-12  8.3463794499601381e-12  1.4899494717273401e-13  3.4112541691020144e-12  7.9067464148449160e-13  -2.1503028083280971e-12  -3.2963736784849965e-13  -1.3139990578749246e-13  -2.1471308181250212e-09  -9.3291013850033359e-10  -1.0620797558115839e-09  -3.9639193218466959e-10  3.1860178932863708e-11  9.2545995978338410e-11  -3.0725531196263973e-12  -1.7049043020038956e-11  3.2851371951242306e-12  2.3527159429557576e-12  -2.0451265069512363e-09  -7.9664178167870838e-10  -1.1716807804021829e-09  -1.1564893824647883e-09  -1.4595845672302241e-09  -1.7642545231307718e-09  -1.5274281435795171e-09  -6.6669131541594133e-10  4.6495082912756562e-11  1.4448508997151808e-10  -1.8472724511114527e-12  -2.7451049419083917e-11  4.8449998617360906e-12  3.8372931362606176e-12  7.4534286966329861e-09  3.3335564772076515e-09  4.5945809487518221e-09  2.6327341002508491e-09  5.1285335934355569e-10  -4.1102109439187875e-10  -1.3148864101435162e-10  8.2302031311397640e-11  1.2211605902970130e-11  -1.7877436964284436e-11  7.5270919313584332e-09  2.8855630229086966e-09  4.3092235859313014e-09  4.0997034558928364e-09  4.7666056315146175e-09  6.0756048193637314e-09  6.5325794572225875e-09  4.2458503931417999e-09  8.3962396670645129e-10  -6.2449103179436229e-10  -2.2112347996660674e-10  1.2838637671459359e-10  2.1564558770225420e-11  -2.8281753018592718e-11  -2.6908607125065576e-08  -1.1165973595511325e-08  -1.7803333956494027e-08  -1.3735452419163489e-08  -5.7099148024407301e-09  7.7561339377222988e-10  1.1847422793386364e-09  -1.5656481303075748e-10  -1.9784874358658138e-10  7.3918419646562107e-11  -2.7878671530645504e-08  -1.0504939798185627e-08  -1.5802985567926338e-08  -1.5069299864382220e-08  -1.6276579925553628e-08  -1.9882288189095759e-08  -2.4646686725462671e-08  -2.1578562563668097e-08  -9.0746237601163893e-09  1.0357168310334540e-09  1.9017487001086063e-09  -2.2154098274960648e-10  -3.1992003447137841e-10  1.1303410771137266e-10  1.0137183455805906e-07  3.7479163343361074e-08  6.3441634137424322e-08  6.0351658190253209e-08  3.8346990034658281e-08  5.7267503457822818e-09  -5.9570904502652320e-09  -1.2279020711017175e-09  1.2295840232371601e-09  -5.4358805547862084e-11  1.0350390664460761e-07  3.8625455102138170e-08  5.7673185831278875e-08  5.5524180630005635e-08  5.8562257007941296e-08  6.5182501511449556e-08  8.4192283823260039e-08  9.2540503005690756e-08  5.9873753011530687e-08  1.0031360921952726e-08  -9.2879197830577540e-09  -2.0911337541165668e-09  1.9312880882289912e-09  -5.3211941847332463e-11  -3.8857980950826773e-07  -1.3385045870087537e-07  -2.1776340933420272e-07  -2.3174790947195903e-07  -2.0061187746599195e-07  -7.6103104056393372e-08  1.4287003805974190e-08  1.4996334947826233e-08  -3.9295935604955643e-09  -1.8112361456605684e-09  -3.8403345770111487e-07  -1.4318111042008447e-07  -2.1136510133980501e-07  -2.0251572401390798e-07  -2.1599251717304223e-07  -2.2474182722613323e-07  -2.7294885455912162e-07  -3.4539887798302987e-07  -3.0768492759678711e-07  -1.2347626807626116e-07  2.0741176245152898e-08  2.4108649754216002e-08  -5.8854232520465643e-09  -3.0164985641426420e-09  1.4825718886354296e-06  5.0761802562893453e-07  7.6297694751736810e-07  8.0828107917989734e-07  8.7678837212437353e-07  5.3603525797501912e-07  6.2834499642918219e-08  -8.7219413265713267e-08  -5.9310141453557968e-09  1.6321794754028077e-08  1.4249019752799092e-06  5.3107854256117094e-07  7.8127731725350968e-07  7.3631148428590082e-07  7.9294311184910390e-07  8.1618310479124972e-07  8.9746447177831630e-07  1.1609945754508671e-06  1.3152996877742795e-06  8.4727076784850484e-07  1.1062547802721612e-07  -1.3644835831498329e-07  -1.1680239666244729e-08  2.6060473654338327e-08  -5.6346239491820695e-06  -1.9437318121900576e-06  -2.8250949095272038e-06  -2.7170520123507582e-06  -3.3228884635642042e-06  -2.8497983193990031e-06  -1.0293211186960182e-06  2.6531437637962225e-07  1.7181527896329450e-07  -7.6398316966805141e-08  -5.3085186283899887e-06  -1.9595084253553468e-06  -2.9059275544238962e-06  -2.6945801641843623e-06  -2.8836283452799211e-06  -3.0080166737049229e-06  -3.1387551942707971e-06  -3.7255186348559617e-06  -4.8348652448597196e-06  -4.4121144195054800e-06  -1.6662741577140176e-06  3.9443397184831061e-07  2.8046111368124883e-07  -1.1821501752530471e-07  2.1703268196950876e-05  7.2546836169429188e-06  1.0877236200642063e-05  9.4635221079153486e-06  1.1415515312583020e-05  1.2403596349247325e-05  7.6345795193072100e-06  5.2696137827021576e-07  -1.2369568831924192e-06  1.1029957741092096e-07  2.0015989305799873e-05  7.1646186699852440e-06  1.0850897547119368e-05  9.9264005091487860e-06  1.0513047574121399e-05  1.0962064739312152e-05  1.1499292625827313e-05  1.2353126271788415e-05  1.5915146929248359e-05  1.8755383331045568e-05  1.2055872132937905e-05  1.0015570151274091e-06  -1.9565249218967211e-06  1.4566788346747545e-07  -8.5960666380981697e-05  -2.6566843042714457e-05  -4.1963407295164885e-05  -3.5249388911829710e-05  -3.8282348327010631e-05  -4.6037921529736512e-05  -4.1261064614675789e-05  -1.3597850790590840e-05  4.8024666271710129e-06  1.5448840609595477e-06  -7.7221005475996363e-05  -2.5947824535192392e-05  -4.0638747283893944e-05  -3.6692221198178494e-05  -3.8629619259347582e-05  -3.9758922924378944e-05  -4.2134160692458763e-05  -4.4030014205631263e-05  -5.0638909151049947e-05  -6.7400098147559861e-05  -6.3856241236537155e-05  -2.2157543330044772e-05  7.3206942141046200e-06  2.5963353331514277e-06  3.5036518765172293e-04  9.8414614261322766e-05  1.5995256585721670e-04  1.3551219005073176e-04  1.3588914073386457e-04  1.5421322224926708e-04  1.7773860820900794e-04  1.0942537593081959e-04  4.5878590265281089e-07  -1.6510623431125395e-05  3.0660591143822323e-04  9.4299890591169956e-05  1.5206620140408952e-04  1.3639081181554135e-04  1.4225358386050192e-04  1.4553582773487185e-04  1.5230637744977351e-04  1.6182616646984982e-04  1.7127456970983195e-04  2.1572072434862058e-04  2.6850448466403355e-04  1.7337934876880909e-04  3.0440290858267638e-06  -2.6452018466791834e-05  -1.4507049638023527e-03  -3.8117736212481263e-04  -6.0710056752835250e-04  -5.1801138158910501e-04  -5.1369066909935635e-04  -5.1783785036497358e-04  -6.3674896221673633e-04  -6.0602229907296616e-04  -1.7386843521833331e-04  8.6996351466143331e-05  -1.2406145301921711e-03  -3.5519985707174555e-04  -5.6610276930638430e-04  -5.1039856970576457e-04  -5.2493511796998234e-04  -5.3519118428590389e-04  -5.5419520124985484e-04  -5.8511197403665258e-04  -6.2326179704394772e-04  -6.8726358867680784e-04  -9.2880080449015269e-04  -9.4006983722734428e-04  -2.8574098456876976e-04  1.3538632886773400e-04  5.9101859393163965e-03  1.6030166900478614e-03  2.2930732121187302e-03  1.9903517566468307e-03  1.9430430136076200e-03  1.9035489021580595e-03  2.0638154683648023e-03  2.5485866239153511e-03  1.6110005838177518e-03  -1.5864818673437883e-04  4.9630426819837880e-03  1.4422191509372967e-03  2.0947914889623900e-03  1.9210574616582415e-03  1.9439148306331228e-03  1.9726412355024706e-03  2.0298467778374621e-03  2.1177853827996410e-03  2.2562109157945368e-03  2.4226346930029826e-03  2.8660141465336130e-03  3.8498988972988754e-03  2.5631780816913682e-03  -2.2047204377373362e-04  -2.2553100029407087e-02  -7.3316720113923480e-03  -8.6578049544027789e-03  -7.7057248353511326e-03  -7.3473899811387425e-03  -7.1730667086234053e-03  -7.2235566668330392e-03  -8.4568848568474780e-03  -9.2666796775374774e-03  -2.0093715282587057e-03  -1.8693614205907899e-02  -6.3642328288386289e-03  -7.7511018604674098e-03  -7.2596210595243897e-03  -7.2289286910083685e-03  -7.2929253022753866e-03  -7.4565574169540780e-03  -7.7235634828370465e-03  -8.1298993323063503e-03  -8.7394124671828343e-03  -9.6080953674425214e-03  -1.2244458708893966e-02  -1.4415256261406764e-02  -3.3674282604705280e-03  7.5024879155030394e-02  3.4523439552439437e-02  3.3164294870359240e-02  2.9923841800633320e-02  2.8032277178248553e-02  2.6997459482303143e-02  2.6765295501642566e-02  2.8238631694302831e-02  3.4380511698871415e-02  2.7526235543725588e-02  6.1643117094197980e-02  2.9141995558470819e-02  2.9082855648014314e-02  2.7510598763252816e-02  2.7011309194747622e-02  2.7049837020810374e-02  2.7476644834667743e-02  2.8276700438828371e-02  2.9503505046816560e-02  3.1364870598446067e-02  3.4130753295601522e-02  3.9213041245592391e-02  5.1561149592786799e-02  4.4129197966026927e-02  1.2068139818542835e-01  1.1049951184133262e-01  8.9030014947294761e-02  7.9196726434389270e-02  7.3193580658565058e-02  6.9450175131360953e-02  6.7708426988817516e-02  6.8441559604635452e-02  6.9349114340257964e-02  8.6151803716747646e-02  9.1359850643615181e-02  8.7452836358940939e-02  7.3237243682847966e-02  6.8562898543332848e-02  6.6737317665369333e-02  6.6455338555367408e-02  6.7330021585241304e-02  6.9206379830171888e-02  7.2138829534739393e-02  7.6367919541323936e-02  8.2386742393916759e-02  9.1466838565520167e-02  1.0103506431207335e-01  1.3501331166110880e-01  9.6065134942780142e-02  9.5494528633765480e-02  8.7626557951206302e-02  7.9734840470774546e-02  7.3768757076578720e-02  6.9696992295084165e-02  6.7118922889333035e-02  6.5548382685664944e-02  6.4837583136180696e-02  5.7199490632461290e-02  6.5968458770120891e-02  6.9903851002009645e-02  6.8035889080355363e-02  6.5484146256413911e-02  6.4271523981949727e-02  6.4440186548096565e-02  6.5677732598614938e-02  6.7870298773379314e-02  7.1028456623940667e-02  7.5241305130080899e-02  8.0640969886665526e-02  8.6918830066069735e-02  9.4518282515197546e-02  9.2553845246064581e-02  9.5919173968401564e-02  9.8456111899105234e-02  9.5505104216187409e-02  8.9294737256522122e-02  8.3488244572104256e-02  7.8858936379091402e-02  7.5132516692038423e-02  7.1996832038684538e-02  6.7818334017401977e-02  6.2032206698261816e-02  6.2520878201310998e-02  7.0250998267053971e-02  7.3002017730465704e-02  7.2511878080392680e-02  7.2202493188286740e-02  7.2817894958635998e-02  7.4324977887417390e-02  7.6699138014169624e-02  7.9897931480818127e-02  8.3873468023573303e-02  8.8455574436774403e-02  9.3313942939278388e-02  9.6631678500342710e-02  9.6955700995814742e-02  9.6738143923848663e-02  9.7261269908953105e-02  9.5339139139462917e-02  9.1442292610630874e-02  8.6865363785116195e-02  8.2329524845206836e-02  7.8065722117358946e-02  7.3805213087961258e-02  6.8620447001845178e-02  6.1576945173111082e-02  6.1373263917268946e-02  6.8076626261651313e-02  7.2224333093474508e-02  7.4159363109891477e-02  7.5421074524594595e-02  7.6769248749821453e-02  7.8630772529375559e-02  8.1087129591243076e-02  8.4102805428923483e-02  8.7561785938876480e-02  9.1213738668098746e-02  9.4496555937157778e-02  9.6347949594897703e-02  9.4465958245768838e-02  9.8009079883968744e-02  9.7424888896295470e-02  9.5811066143838705e-02  9.2790937449945307e-02  8.8908747059144713e-02  8.4619455686273687e-02  8.0138134214556359e-02  7.5377602579604019e-02  6.9710375547043499e-02  6.3378562156567356e-02  6.1562998888323381e-02  6.7641057767587956e-02  7.2550575203027504e-02  7.5683575665947619e-02  7.8004367183535650e-02  8.0071035463379556e-02  8.2293110472164158e-02  8.4808671078825199e-02  8.7617267789072584e-02  9.0597387377548536e-02  9.3486949701158034e-02  9.5819118048268828e-02  9.6755689007348752e-02  9.5440278738070469e-02  9.9220866685443346e-02  9.7645154052598479e-02  9.5641114742802597e-02  9.2844989073878448e-02  8.9366519036028547e-02  8.5347690702048604e-02  8.0900336909960041e-02  7.6038419975099011e-02  7.0489522639981733e-02  6.4819911166217367e-02  6.2362065959435872e-02  6.7657571331875166e-02  7.2570213000638997e-02  7.6247327566860007e-02  7.9276354065646551e-02  8.1920237541277099e-02  8.4464987289734630e-02  8.7051177913604560e-02  8.9699953023985507e-02  9.2312546099823312e-02  9.4681442859724685e-02  9.6447603969145035e-02  9.7179512026539433e-02  9.6433065213144403e-02  1.0013221161891329e-01  9.7866848796373321e-02  9.5441205151315406e-02  9.2623092750695177e-02  8.9282209616602021e-02  8.5429766447063821e-02  8.1110444336139315e-02  7.6383770900059281e-02  7.1163575990253816e-02  6.6201329732137909e-02  6.3322995790450726e-02  6.7932515784319858e-02  7.2651205517945766e-02  7.6544884597752924e-02  7.9941857412477335e-02  8.2939495779776301e-02  8.5718653271021447e-02  8.8374817887178894e-02  9.0928636353520886e-02  9.3312351689952805e-02  9.5385932307968574e-02  9.6919970951615003e-02  9.7760505612526472e-02  9.7739314173196062e-02  1.0073378858333870e-01  9.8023230164849443e-02  9.5215750965071566e-02  9.2256763031928229e-02  8.8925639251531088e-02  8.5181436039162423e-02  8.1023464165880521e-02  7.6528672282753396e-02  7.1702710895566235e-02  6.7304581070574118e-02  6.4255985089422665e-02  6.8307702137865162e-02  7.2730100378512186e-02  7.6621746602890783e-02  8.0164176920796096e-02  8.3352760926949501e-02  8.6279612294234365e-02  8.8994151367157312e-02  9.1509811879284225e-02  9.3784847964893323e-02  9.5742556183184072e-02  9.7259339688549898e-02  9.8373485076879819e-02  9.8992809954374497e-02  1.0106946995030638e-01  9.8092698846666410e-02  9.4998268675477129e-02  9.1891911834433446e-02  8.8528080359526640e-02  8.4855304799643483e-02  8.0854273565791432e-02  7.6607890518799071e-02  7.2144805224963138e-02  6.8170963505368651e-02  6.5069619349899410e-02  6.8688892853381631e-02  7.2803355088696037e-02  7.6592012176386004e-02  8.0149521412853419e-02  8.3412480054020216e-02  8.6414754701362673e-02  8.9172268153596995e-02  9.1689939648818386e-02  9.3945279049887559e-02  9.5910622785429250e-02  9.7538494297575162e-02  9.8976935356922827e-02  1.0013490895285185e-01  1.0120037563774718e-01  9.8081719838694903e-02  9.4794985462242756e-02  9.1569604498202534e-02  8.8168569935749050e-02  8.4551158558367187e-02  8.0692646918816821e-02  7.6672640096603517e-02  7.2509186794144739e-02  6.8833095878204922e-02  6.5730865082421000e-02  6.9028228604149935e-02  7.2862545524373323e-02  7.6504775370755965e-02  8.0004219910411567e-02  8.3269745638788861e-02  8.6299607646433657e-02  8.9087617042481637e-02  9.1632669767768779e-02  9.3926023295577407e-02  9.5973586542978190e-02  9.7774771474237257e-02  9.9531170625438120e-02  1.0111408938529683e-01  1.0118425904100344e-01  9.8005374378821702e-02  9.4605436504054938e-02  9.1301786838761695e-02  8.7878577672832345e-02  8.4312148987241653e-02  8.0578134707366536e-02  7.6748692532589952e-02  7.2817958462974480e-02  6.9345949381050903e-02  6.6237932243549569e-02  6.9303899977030736e-02  7.2902369923468366e-02  7.6391405879161156e-02  7.9800860152743930e-02  8.3030574915410257e-02  8.6059550719411765e-02  8.8869439652403986e-02  9.1456100612316724e-02  9.3819880426336572e-02  9.5986854009078221e-02  9.7980614064163307e-02  1.0002000754717356e-01  1.0192821149375671e-01  1.0106812752549515e-01  9.7880435213228825e-02  9.4427372139249316e-02  9.1084343529219319e-02  8.7658712648767720e-02  8.4143671296602621e-02  8.0517208341612301e-02  7.6842496677281255e-02  7.3088054116644888e-02  6.9755760287604399e-02  6.6604719691999367e-02  6.9510271350147951e-02  7.2920797700988471e-02  7.6269218012287809e-02  7.9581281819872285e-02  8.2758918546459670e-02  8.5773050338281878e-02  8.8600101145153168e-02  9.1234966350593763e-02  9.3683413891548550e-02  9.5981622490123611e-02  9.8161680042883032e-02  1.0043917946718817e-01  1.0259000056752415e-01  1.0088715957114991e-01  9.7721663713929596e-02  9.4258180629294766e-02  9.0907669871710034e-02  8.7498161022251830e-02  8.4036666819160416e-02  8.0503599919765551e-02  7.6953413728072170e-02  7.3332705717930768e-02  7.0099409317183198e-02  6.6851899786025307e-02  6.9650790831359125e-02  7.2918114737307790e-02  7.6147457026042920e-02  7.9368917961623112e-02  8.2492279603461158e-02  8.5487276532465101e-02  8.8329484882560538e-02  9.1014100501089171e-02  9.3549585827241183e-02  9.5975357088142393e-02  9.8322385306785692e-02  1.0079293689929036e-01  1.0312158887796027e-01  1.0066610222630944e-01  9.7540608007514004e-02  9.4095537504971224e-02  9.0761435238457450e-02  8.7382941738216480e-02  8.3977218903701967e-02  8.0526558155262967e-02  7.7077894918605505e-02  7.3561336449827805e-02  7.0402955740174980e-02  6.7001742707612624e-02  6.9733431199095183e-02  7.2896165848558570e-02  7.6030668883325672e-02  7.9175383851324346e-02  8.2250231295344464e-02  8.5227590523854133e-02  8.8084641611583400e-02  9.0817470668577344e-02  9.3435340462048738e-02  9.5976715279755043e-02  9.8466352043559621e-02  1.0108963541686428e-01  1.0354712624286165e-01  1.0042149467236226e-01  9.7345624732931083e-02  9.3937550288309982e-02  9.0636606991224708e-02  8.7300029888750075e-02  8.3951824390473273e-02  8.0575541024613645e-02  7.7212102677383820e-02  7.3780400055473830e-02  7.0683773159597646e-02  6.7075279141367405e-02  6.9767823553463351e-02  7.2857613232944790e-02  7.5920750009450352e-02  7.9005248700869002e-02  8.2041293171051133e-02  8.5005612807011771e-02  8.7878081290547555e-02  9.0655841585200070e-02  9.3347798155937065e-02  9.5989298425381356e-02  9.8596853347609328e-02  1.0133912720981864e-01  1.0388967055229287e-01  1.0016387698451060e-01  9.7142401962888758e-02  9.3782760765558706e-02  9.0526094650121403e-02  8.7238878919701987e-02  8.3949365085974392e-02  8.0641876399118309e-02  7.7352773037427533e-02  7.3994079138567037e-02  7.0952716776651270e-02  6.7090881684655740e-02  6.9763524444477781e-02  7.2805370073264569e-02  7.5818216688619933e-02  7.8859198812719702e-02  8.1867605121871495e-02  8.4824819539261562e-02  8.7713620575890744e-02  9.0532156963180677e-02  9.3288416417608724e-02  9.6013892100632811e-02  9.8716749673228132e-02  1.0155103008328202e-01  1.0416935309046127e-01  9.9899647417040188e-02  9.6934608566284192e-02  9.3630092573706886e-02  9.0424716067809927e-02  8.7191652917240056e-02  8.3961531834107414e-02  8.0719132377265190e-02  7.7497472200699150e-02  7.4204960426942482e-02  7.1216184643980884e-02  6.7063678457198267e-02  6.9729028358294615e-02  7.2742211454819461e-02  7.5722991111280932e-02  7.8736138738760425e-02  8.1728155765455973e-02  8.4684499760090098e-02  8.7590542003626898e-02  9.0445316287779631e-02  9.3255812208537570e-02  9.6049891253457753e-02  9.8828417834275858e-02  1.0173377043746928e-01  1.0440268334661895e-01  9.9632483453051493e-02  9.6724489421046875e-02  9.3478781386607188e-02  9.0328890218517782e-02  8.7152890287664278e-02  8.3982530365150118e-02  8.0802870498445908e-02  7.7644526728412724e-02  7.4414557192811343e-02  7.1477690841540945e-02  6.7005408788221532e-02  6.9671238478615005e-02  7.2670537879031383e-02  7.5634919550188279e-02  7.8634602759303632e-02  8.1620976665452816e-02  8.4582449516294705e-02  8.7506404346375424e-02  9.0392678487761474e-02  9.3247564605198133e-02  9.6096144733120087e-02  9.8933668395030455e-02  1.0189408562485934e-01  1.0460239403749784e-01  9.9364358907548175e-02  9.6513341293989557e-02  9.3328304554912561e-02  9.0236261574519638e-02  8.7118984673399541e-02  8.4008545976480969e-02  8