<?xml version="1.0"?>
<VTKFile type="UnstructuredGrid"  version="0.1"  >
<UnstructuredGrid>
<Piece  NumberOfPoints="14654" NumberOfCells="26298">
<Points>
<DataArray  type="Float64"  NumberOfComponents="3"  format="ascii">0 1 0  0 0.9966666666666667 0  0.003333333333333334 1 0  0.003333333333333334 0.9966666666666667 0  0.006666666666666667 1 0  0.006666666666666667 0.9966666666666667 0  0.01 1 0  0.01 0.9966666666666667 0  0.01333333333333333 1 0  0.01333333333333333 0.9966666666666667 0  0.01666666666666667 1 0  0.01666666666666667 0.9966666666666667 0  0.02 1 0  0.02 0.9966666666666667 0  0.02333333333333333 1 0  0.02333333333333333 0.9966666666666667 0  0.02666666666666667 1 0  0.02666666666666667 0.9966666666666667 0  0.03 1 0  0.03 0.9966666666666667 0  0.29 1 0  0.29 0.9966666666666667 0  0.2933333333333333 1 0  0.2933333333333333 0.9966666666666667 0  0.2966666666666667 1 0  0.2966666666666667 0.9966666666666667 0  0.3 1 0  0.3 0.9966666666666667 0  0.3033333333333333 1 0  0.3033333333333333 0.9966666666666667 0  0.3066666666666666 1 0  0.3066666666666666 0.9966666666666667 0  0.31 1 0  0.31 0.9966666666666667 0  0.3133333333333334 1 0  0.3133333333333334 0.9966666666666667 0  0.3166666666666667 1 0  0.3166666666666667 0.9966666666666667 0  0.32 1 0  0.32 0.9966666666666667 0  0.3233333333333333 1 0  0.3233333333333333 0.9966666666666667 0  0.3266666666666667 1 0  0.3266666666666667 0.9966666666666667 0  0.33 1 0  0.33 0.9966666666666667 0  0.3333333333333333 1 0  0.3333333333333333 0.9966666666666667 0  0 0.9933333333333333 0  0.003333333333333334 0.9933333333333333 0  0.006666666666666667 0.9933333333333333 0  0.01 0.9933333333333333 0  0.01333333333333333 0.9933333333333333 0  0.01666666666666667 0.9933333333333333 0  0.02 0.9933333333333333 0  0.02333333333333333 0.9933333333333333 0  0.02666666666666667 0.9933333333333333 0  0.03 0.9933333333333333 0  0.29 0.9933333333333333 0  0.2933333333333333 0.9933333333333333 0  0.2966666666666667 0.9933333333333333 0  0.3 0.9933333333333333 0  0.3033333333333333 0.9933333333333333 0  0.3066666666666666 0.9933333333333333 0  0.31 0.9933333333333333 0  0.3133333333333334 0.9933333333333333 0  0.3166666666666667 0.9933333333333333 0  0.32 0.9933333333333333 0  0.3233333333333333 0.9933333333333333 0  0.3266666666666667 0.9933333333333333 0  0.33 0.9933333333333333 0  0.3333333333333333 0.9933333333333333 0  0 0.99 0  0.003333333333333334 0.99 0  0.006666666666666667 0.99 0  0.01 0.99 0  0.01333333333333333 0.99 0  0.01666666666666667 0.99 0  0.02 0.99 0  0.02333333333333333 0.99 0  0.02666666666666667 0.99 0  0.03 0.99 0  0.29 0.99 0  0.2933333333333333 0.99 0  0.2966666666666667 0.99 0  0.3 0.99 0  0.3033333333333333 0.99 0  0.3066666666666666 0.99 0  0.31 0.99 0  0.3133333333333334 0.99 0  0.3166666666666667 0.99 0  0.32 0.99 0  0.3233333333333333 0.99 0  0.3266666666666667 0.99 0  0.33 0.99 0  0.3333333333333333 0.99 0  0 0.9866666666666667 0  0.003333333333333334 0.9866666666666667 0  0.006666666666666667 0.9866666666666667 0  0.01 0.9866666666666667 0  0.01333333333333333 0.9866666666666667 0  0.01666666666666667 0.9866666666666667 0  0.02 0.9866666666666667 0  0.02333333333333333 0.9866666666666667 0  0.02666666666666667 0.9866666666666667 0  0.03 0.9866666666666667 0  0.29 0.9866666666666667 0  0.2933333333333333 0.9866666666666667 0  0.2966666666666667 0.9866666666666667 0  0.3 0.9866666666666667 0  0.3033333333333333 0.9866666666666667 0  0.3066666666666666 0.9866666666666667 0  0.31 0.9866666666666667 0  0.3133333333333334 0.9866666666666667 0  0.3166666666666667 0.9866666666666667 0  0.32 0.9866666666666667 0  0.3233333333333333 0.9866666666666667 0  0.3266666666666667 0.9866666666666667 0  0.33 0.9866666666666667 0  0.3333333333333333 0.9866666666666667 0  0 0.9833333333333333 0  0.003333333333333334 0.9833333333333333 0  0.006666666666666667 0.9833333333333333 0  0.01 0.9833333333333333 0  0.01333333333333333 0.9833333333333333 0  0.01666666666666667 0.9833333333333333 0  0.02 0.9833333333333333 0  0.02333333333333333 0.9833333333333333 0  0.02666666666666667 0.9833333333333333 0  0.03 0.9833333333333333 0  0.29 0.9833333333333333 0  0.2933333333333333 0.9833333333333333 0  0.2966666666666667 0.9833333333333333 0  0.3 0.9833333333333333 0  0.3033333333333333 0.9833333333333333 0  0.3066666666666666 0.9833333333333333 0  0.31 0.9833333333333333 0  0.3133333333333334 0.9833333333333333 0  0.3166666666666667 0.9833333333333333 0  0.32 0.9833333333333333 0  0.3233333333333333 0.9833333333333333 0  0.3266666666666667 0.9833333333333333 0  0.33 0.9833333333333333 0  0.3333333333333333 0.9833333333333333 0  0 0.98 0  0.003333333333333334 0.98 0  0.006666666666666667 0.98 0  0.01 0.98 0  0.01333333333333333 0.98 0  0.01666666666666667 0.98 0  0.02 0.98 0  0.02333333333333333 0.98 0  0.02666666666666667 0.98 0  0.03 0.98 0  0.29 0.98 0  0.2933333333333333 0.98 0  0.2966666666666667 0.98 0  0.3 0.98 0  0.3033333333333333 0.98 0  0.3066666666666666 0.98 0  0.31 0.98 0  0.3133333333333334 0.98 0  0.3166666666666667 0.98 0  0.32 0.98 0  0.3233333333333333 0.98 0  0.3266666666666667 0.98 0  0.33 0.98 0  0.3333333333333333 0.98 0  0 0.9766666666666667 0  0.003333333333333334 0.9766666666666667 0  0.006666666666666667 0.9766666666666667 0  0.01 0.9766666666666667 0  0.01333333333333333 0.9766666666666667 0  0.01666666666666667 0.9766666666666667 0  0.02 0.9766666666666667 0  0.02333333333333333 0.9766666666666667 0  0.02666666666666667 0.9766666666666667 0  0.03 0.9766666666666667 0  0.29 0.9766666666666667 0  0.2933333333333333 0.9766666666666667 0  0.2966666666666667 0.9766666666666667 0  0.3 0.9766666666666667 0  0.3033333333333333 0.9766666666666667 0  0.3066666666666666 0.9766666666666667 0  0.31 0.9766666666666667 0  0.3133333333333334 0.9766666666666667 0  0.3166666666666667 0.9766666666666667 0  0.32 0.9766666666666667 0  0.3233333333333333 0.9766666666666667 0  0.3266666666666667 0.9766666666666667 0  0.33 0.9766666666666667 0  0.3333333333333333 0.9766666666666667 0  0 0.9733333333333334 0  0.003333333333333334 0.9733333333333334 0  0.006666666666666667 0.9733333333333334 0  0.01 0.9733333333333334 0  0.01333333333333333 0.9733333333333334 0  0.01666666666666667 0.9733333333333334 0  0.02 0.9733333333333334 0  0.02333333333333333 0.9733333333333334 0  0.02666666666666667 0.9733333333333334 0  0.03 0.9733333333333334 0  0.29 0.9733333333333334 0  0.2933333333333333 0.9733333333333334 0  0.2966666666666667 0.9733333333333334 0  0.3 0.9733333333333334 0  0.3033333333333333 0.9733333333333334 0  0.3066666666666666 0.9733333333333334 0  0.31 0.9733333333333334 0  0.3133333333333334 0.9733333333333334 0  0.3166666666666667 0.9733333333333334 0  0.32 0.9733333333333334 0  0.3233333333333333 0.9733333333333334 0  0.3266666666666667 0.9733333333333334 0  0.33 0.9733333333333334 0  0.3333333333333333 0.9733333333333334 0  0 0.97 0  0.003333333333333334 0.97 0  0.006666666666666667 0.97 0  0.01 0.97 0  0.01333333333333333 0.97 0  0.01666666666666667 0.97 0  0.02 0.97 0  0.02333333333333333 0.97 0  0.02666666666666667 0.97 0  0.03 0.97 0  0.29 0.97 0  0.2933333333333333 0.97 0  0.2966666666666667 0.97 0  0.3 0.97 0  0.3033333333333333 0.97 0  0.3066666666666666 0.97 0  0.31 0.97 0  0.3133333333333334 0.97 0  0.3166666666666667 0.97 0  0.32 0.97 0  0.3233333333333333 0.97 0  0.3266666666666667 0.97 0  0.33 0.97 0  0.3333333333333333 0.97 0  0 0.9666666666666667 0  0.003333333333333334 0.9666666666666667 0  0.006666666666666667 0.9666666666666667 0  0.01 0.9666666666666667 0  0.01333333333333333 0.9666666666666667 0  0.01666666666666667 0.9666666666666667 0  0.02 0.9666666666666667 0  0.02333333333333333 0.9666666666666667 0  0.02666666666666667 0.9666666666666667 0  0.03 0.9666666666666667 0  0.29 0.9666666666666667 0  0.2933333333333333 0.9666666666666667 0  0.2966666666666667 0.9666666666666667 0  0.3 0.9666666666666667 0  0.3033333333333333 0.9666666666666667 0  0.3066666666666666 0.9666666666666667 0  0.31 0.9666666666666667 0  0.3133333333333334 0.9666666666666667 0  0.3166666666666667 0.9666666666666667 0  0.32 0.9666666666666667 0  0.3233333333333333 0.9666666666666667 0  0.3266666666666667 0.9666666666666667 0  0.33 0.9666666666666667 0  0.3333333333333333 0.9666666666666667 0  0 0.9633333333333334 0  0.003333333333333334 0.9633333333333334 0  0.006666666666666667 0.9633333333333334 0  0.01 0.9633333333333334 0  0.01333333333333333 0.9633333333333334 0  0.01666666666666667 0.9633333333333334 0  0.02 0.9633333333333334 0  0.02333333333333333 0.9633333333333334 0  0.02666666666666667 0.9633333333333334 0  0.03 0.9633333333333334 0  0.29 0.9633333333333334 0  0.2933333333333333 0.9633333333333334 0  0.2966666666666667 0.9633333333333334 0  0.3 0.9633333333333334 0  0.3033333333333333 0.9633333333333334 0  0.3066666666666666 0.9633333333333334 0  0.31 0.9633333333333334 0  0.3133333333333334 0.9633333333333334 0  0.3166666666666667 0.9633333333333334 0  0.32 0.9633333333333334 0  0.3233333333333333 0.9633333333333334 0  0.3266666666666667 0.9633333333333334 0  0.33 0.9633333333333334 0  0.3333333333333333 0.9633333333333334 0  0 0.96 0  0.003333333333333334 0.96 0  0.006666666666666667 0.96 0  0.01 0.96 0  0.01333333333333333 0.96 0  0.01666666666666667 0.96 0  0.02 0.96 0  0.02333333333333333 0.96 0  0.02666666666666667 0.96 0  0.03 0.96 0  0.29 0.96 0  0.2933333333333333 0.96 0  0.2966666666666667 0.96 0  0.3 0.96 0  0.3033333333333333 0.96 0  0.3066666666666666 0.96 0  0.31 0.96 0  0.3133333333333334 0.96 0  0.3166666666666667 0.96 0  0.32 0.96 0  0.3233333333333333 0.96 0  0.3266666666666667 0.96 0  0.33 0.96 0  0.3333333333333333 0.96 0  0 0.9566666666666667 0  0.003333333333333334 0.9566666666666667 0  0.006666666666666667 0.9566666666666667 0  0.01 0.9566666666666667 0  0.01333333333333333 0.9566666666666667 0  0.01666666666666667 0.9566666666666667 0  0.02 0.9566666666666667 0  0.02333333333333333 0.9566666666666667 0  0.02666666666666667 0.956666666666
[...]
<PointData  Vectors="f_139"> 
<DataArray  type="Float64"  Name="f_139"  NumberOfComponents="3" format="ascii">0.0000000000000000e+00 0.0000000000000000e+00 0.0000000000000000e+00  0.0000000000000000e+00 0.0000000000000000e+00 0.0000000000000000e+00  0.0000000000000000e+00 0.0000000000000000e+00 0.0000000000000000e+00  0.0000000000000000e+00 0.0000000000000000e+00 0.0000000000000000e+00  0.0000000000000000e+00 0.0000000000000000e+00 0.0000000000000000e+00  0.0000000000000000e+00 0.0000000000000000e+00 0.0000000000000000e+00  0.0000000000000000e+00 0.0000000000000000e+00 0.0000000000000000e+00  0.0000000000000000e+00 0.0000000000000000e+00 0.0000000000000000e+00  0.0000000000000000e+00 0.0000000000000000e+00 0.0000000000000000e+00  0.0000000000000000e+00 0.0000000000000000e+00 0.0000000000000000e+00  0.0000000000000000e+00 0.0000000000000000e+00 0.0000000000000000e+00  0.0000000000000000e+00 0.0000000000000000e+00 0.0000000000000000e+00  0.0000000000000000e+00 0.0000000000000000e+00 0.0000000000000000e+00  0.0000000000000000e+00 0.0000000000000000e+00 0.0000000000000000e+00  0.0000000000000000e+00 0.0000000000000000e+00 0.0000000000000000e+00  0.0000000000000000e+00 0.0000000000000000e+00 0.0000000000000000e+00  0.0000000000000000e+00 0.0000000000000000e+00 0.0000000000000000e+00  0.0000000000000000e+00 0.0000000000000000e+00 0.0000000000000000e+00  0.0000000000000000e+00 0.0000000000000000e+00 0.0000000000000000e+00  0.0000000000000000e+00 0.0000000000000000e+00 0.0000000000000000e+00  0.0000000000000000e+00 0.0000000000000000e+00 0.0000000000000000e+00  0.0000000000000000e+00 0.0000000000000000e+00 0.0000000000000000e+00  0.0000000000000000e+00 0.0000000000000000e+00 0.0000000000000000e+00  0.0000000000000000e+00 0.0000000000000000e+00 0.0000000000000000e+00  0.0000000000000000e+00 0.0000000000000000e+00 0.0000000000000000e+00  0.0000000000000000e+00 0.0000000000000000e+00 0.0000000000000000e+00  0.0000000000000000e+00 0.0000000000000000e+00 0.0000000000000000e+00  0.0000000000000000e+00 0.0000000000000000e+00 0.0000000000000000e+00  0.0000000000000000e+00 0.0000000000000000e+00 0.0000000000000000e+00  0.0000000000000000e+00 0.0000000000000000e+00 0.0000000000000000e+00  0.0000000000000000e+00 0.0000000000000000e+00 0.0000000000000000e+00  0.0000000000000000e+00 0.0000000000000000e+00 0.0000000000000000e+00  0.0000000000000000e+00 0.0000000000000000e+00 0.0000000000000000e+00  0.0000000000000000e+00 0.0000000000000000e+00 0.0000000000000000e+00  0.0000000000000000e+00 0.0000000000000000e+00 0.0000000000000000e+00  0.0000000000000000e+00 0.0000000000000000e+00 0.0000000000000000e+00  0.0000000000000000e+00 0.0000000000000000e+00 0.0000000000000000e+00  0.0000000000000000e+00 0.0000000000000000e+00 0.0000000000000000e+00  0.0000000000000000e+00 0.0000000000000000e+00 0.0000000000000000e+00  0.0000000000000000e+00 0.0000000000000000e+00 0.0000000000000000e+00  0.0000000000000000e+00 0.0000000000000000e+00 0.0000000000000000e+00  0.0000000000000000e+00 0.0000000000000000e+00 0.0000000000000000e+00  0.0000000000000000e+00 0.0000000000000000e+00 0.0000000000000000e+00  0.0000000000000000e+00 0.0000000000000000e+00 0.0000000000000000e+00  0.0000000000000000e+00 0.0000000000000000e+00 0.0000000000000000e+00  0.0000000000000000e+00 0.0000000000000000e+00 0.0000000000000000e+00  0.0000000000000000e+00 0.0000000000000000e+00 0.0000000000000000e+00  0.0000000000000000e+00 0.0000000000000000e+00 0.0000000000000000e+00  0.0000000000000000e+00 0.0000000000000000e+00 0.0000000000000000e+00  0.0000000000000000e+00 0.0000000000000000e+00 0.0000000000000000e+00  0.0000000000000000e+00 0.0000000000000000e+00 0.0000000000000000e+00  0.0000000000000000e+00 0.0000000000000000e+00 0.0000000000000000e+00  0.0000000000000000e+00 0.0000000000000000e+00 0.0000000000000000e+00  0.0000000000000000e+00 0.0000000000000000e+00 0.0000000000000000e+00  0.0000000000000000e+00 0.0000000000000000e+00 0.0000000000000000e+00  0.0000000000000000e+00 0.0000000000000000e+00 0.0000000000000000e+00  0.0000000000000000e+00 0.0000000000000000e+00 0.0000000000000000e+00  0.0000000000000000e+00 0.0000000000000000e+00 0.0000000000000000e+00  0.0000000000000000e+00 0.0000000000000000e+00 0.0000000000000000e+00  0.0000000000000000e+00 0.0000000000000000e+00 0.0000000000000000e+00  0.0000000000000000e+00 0.0000000000000000e+00 0.0000000000000000e+00  0.0000000000000000e+00 0.0000000000000000e+00 0.0000000000000000e+00  0.0000000000000000e+00 0.0000000000000000e+00 0.0000000000000000e+00  0.0000000000000000e+00 0.0000000000000000e+00 0.0000000000000000e+00  0.0000000000000000e+00 0.0000000000000000e+00 0.0000000000000000e+00  0.0000000000000000e+00 0.0000000000000000e+00 0.0000000000000000e+00  0.0000000000000000e+00 0.0000000000000000e+00 0.0000000000000000e+00  0.0000000000000000e+00 0.0000000000000000e+00 0.0000000000000000e+00  0.0000000000000000e+00 0.0000000000000000e+00 0.0000000000000000e+00  0.0000000000000000e+00 0.0000000000000000e+00 0.0000000000000000e+00  0.0000000000000000e+00 0.0000000000000000e+00 0.0000000000000000e+00  0.0000000000000000e+00 0.0000000000000000e+00 0.0000000000000000e+00  0.0000000000000000e+00 0.0000000000000000e+00 0.0000000000000000e+00  0.0000000000000000e+00 0.0000000000000000e+00 0.0000000000000000e+00  0.0000000000000000e+00 0.0000000000000000e+00 0.0000000000000000e+00  0.0000000000000000e+00 0.0000000000000000e+00 0.0000000000000000e+00  0.0000000000000000e+00 0.0000000000000000e+00 0.0000000000000000e+00  0.0000000000000000e+00 0.0000000000000000e+00 0.0000000000000000e+00  0.0000000000000000e+00 0.0000000000000000e+00 0.0000000000000000e+00  0.0000000000000000e+00 0.0000000000000000e+00 0.0000000000000000e+00  0.0000000000000000e+00 0.0000000000000000e+00 0.0000000000000000e+00  0.0000000000000000e+00 0.0000000000000000e+00 0.0000000000000000e+00  0.0000000000000000e+00 0.0000000000000000e+00 0.0000000000000000e+00  0.0000000000000000e+00 0.0000000000000000e+00 0.0000000000000000e+00  0.0000000000000000e+00 0.0000000000000000e+00 0.0000000000000000e+00  0.0000000000000000e+00 0.0000000000000000e+00 0.0000000000000000e+00  0.0000000000000000e+00 0.0000000000000000e+00 0.0000000000000000e+00  0.0000000000000000e+00 0.0000000000000000e+00 0.0000000000000000e+00  0.0000000000000000e+00 0.0000000000000000e+00 0.0000000000000000e+00  0.0000000000000000e+00 0.0000000000000000e+00 0.0000000000000000e+00  0.0000000000000000e+00 0.0000000000000000e+00 0.0000000000000000e+00  0.0000000000000000e+00 0.0000000000000000e+00 0.0000000000000000e+00  0.0000000000000000e+00 0.0000000000000000e+00 0.0000000000000000e+00  0.0000000000000000e+00 0.0000000000000000e+00 0.0000000000000000e+00  0.0000000000000000e+00 0.0000000000000000e+00 0.0000000000000000e+00  0.0000000000000000e+00 0.0000000000000000e+00 0.0000000000000000e+00  0.0000000000000000e+00 0.0000000000000000e+00 0.0000000000000000e+00  0.0000000000000000e+00 0.0000000000000000e+00 0.0000000000000000e+00  0.0000000000000000e+00 0.0000000000000000e+00 0.0000000000000000e+00  0.0000000000000000e+00 0.0000000000000000e+00 0.0000000000000000e+00  0.0000000000000000e+00 0.0000000000000000e+00 0.0000000000000000e+00  0.0000000000000000e+00 0.0000000000000000e+00 0.0000000000000000e+00  0.0000000000000000e+00 0.0000000000000000e+00 0.0000000000000000e+00  0.0000000000000000e+00 0.0000000000000000e+00 0.0000000000000000e+00  0.0000000000000000e+00 0.0000000000000000e+00 0.0000000000000000e+00  0.0000000000000000e+00 0.0000000000000000e+00 0.0000000000000000e+00  0.0000000000000000e+00 0.0000000000000000e+00 0.0000000000000000e+00  0.0000000000000000e+00 0.0000000000000000e+00 0.0000000000000000e+00  0.0000000000000000e+00 0.0000000000000000e+00 0.0000000000000000e+00  0.0000000000000000e+00 0.0000000000000000e+00 0.0000000000000000e+00  0.0000000000000000e+00 0.0000000000000000e+00 0.0000000000000000e+00  0.0000000000000000e+00 0.0000000000000000e+00 0.0000000000000000e+00  0.0000000000000000e+00 0.0000000000000000e+00 0.0000000000000000e+00  0.0000000000000000e+00 0.0000000000000000e+00 0.0000000000000000e+00  0.0000000000000000e+00 0.0000000000000000e+00 0.0000000000000000e+00  0.0000000000000000e+00 0.0000000000000000e+00 0.0000000000000000e+00  0.0000000000000000e+00 0.0000000000000000e+00 0.0000000000000000e+00  0.0000000000000000e+00 0.0000000000000000e+00 0.0000000000000000e+00  0.0000000000000000e+00 0.0000000000000000e+00 0.0000000000000000e+00  0.0000000000000000e+00 0.0000000000000000e+00 0.0000000000000000e+00  0.0000000000000000e+00 0.0000000000000000e+00 0.0000000000000000e+00  0.0000000000000000e+00 0.0000000000000000e+00 0.0000000000000000e+00  0.0000000000000000e+00 0.0000000000000000e+00 0.0000000000000000e+00  0.0000000000000000e+00 0.0000000000000000e+00 0.0000000000000000e+00  0.0000000000000000e+00 0.0000000000000000e+00 0.0000000000000000e+00  0.0000000000000000e+00 0.0000000000000000e+00 0.0000000000000000e+00  0.0000000000000000e+00 0.0000000000000000e+00 0.0000000000000000e+00  0.0000000000000000e+00 0.0000000000000000e+00 0.0000000000000000e+00  0.0000000000000000e+00 0.0000000000000000e+00 0.0000000000000000e+00  0.0000000000000000e+00 0.0000000000000000e+00 0.0000000000000000e+00  0.0000000000000000e+00 0.0000000000000000e+00 0.0000000000000000e+00  0.0000000000000000e+00 0.0000000000000000e+00 0.0000000000000000e+00  0.0000000000000000e+00 0.0000000000000000e+00 0.0000000000000000e+00  0.0000000000000000e+00 0.0000000000000000e+00 0.0000000000000000e+00  0.0000000000000000e+00 0.0000000000000000e+00 0.0000000000000000e+00  0.0000000000000000e+00 0.0000000000000000e+00 0.0000000000000000e+00  0.0000000000000000e+00 0.0000000000000000e+00 0.0000000000000000e+00  0.0000000000000000e+00 0.0000000000000000e+00 0.0000000000000000e+00  0.0000000000000000e+00 0.0000000000000000e+00 0.0000000000000000e+00  0.0000000000000000e+00 0.0000000000000000e+00 0.0000000000000000e+00  0.0000000000000000e+00 0.0000000000000000e+00 0.0000000000000000e+00  0.0000000000000000e+00 0.0000000000000000e+00 0.0000000000000000e+00  0.0000000000000000e+00 0.0000000000000000e+00 0.0000000000000000e+00  0.0000000000000000e+00 0.0000000000000000e+00 0.0000000000000000e+00  0.0000000000000000e+00 0.0000000000000000e+00 0.0000000000000000e+00  0.0000000000000000e+00 0.0000000000000000e+00 0.0000000000000000e+00  0.0000000000000000e+00 0.0000000000000000e+00 0.0000000000000000e+00  0.0000000000000000e+00 0.0000000000000000e+00 0.0000000000000000e+00  0.0000000000000000e+00 0.0000000000000000e+00 0.0000000000000000e+00  0.0000000000000000e+00 0.0000000000000000e+00 0.0000000000000000e+00  0.0000000000000000e+00 0.0000000000000000e+00 0.0000000000000000e+00  0.0000000000000000e+00 0.0000000000000000e+00 0.0000000000000000e+00  0.0000000000000000e+00 0.0000000000000000e+00 0.0000000000000000e+00  0.0000000000000000e+00 0.0000000000000000e+00 0.0000000000000000e+00  0.0000000000000000e+00 0.0000000000000000e+00 0.0000000000000000e+00  0.0000000000000000e+00 0.0000000000000000e+00 0.0000000000000000e+00  0.0000000000000000e+00 0.0000000000000000e+00 0.0000000000000000e+00  0.0000000000000000e+00 0.0000000000000000e+00 0.0000000000000000e+00  0.0000000000000000e+00 0.0000000000000000e+00 0.0000000000000000e+00  0.0000000000000000e+00 0.0000000000000000e+00 0.0000000000000000e+00  0.0000000000000000e+00 0.0000000000000000e+00 0.0000000000000000e+00  0.0000000000000000e+00 0.0000000000000000e+00 0.0000000000000000e+00  0.0000000000000000e+00 0.0000000000000000e+00 0.0000000000000000e+00  0.0000000000000000e+00 0.0000000000000000e+00 0.0000000000000000e+00  0.0000000000000000e+00 0.0000000000000000e+00 0.0000000000000000e+00  0.0000000000000000e+00 0.0000000000000000e+00 0.0000000000000000e+00  0.0000000000000000e+00 0.0000000000000000e+00 0.0000000000000000e+00  0.0000000000000000e+00 0.0000000000000000e+00 0.0000000000000000e+00  0.0000000000000000e+00 0.0000000000000000e+00 0.0000000000000000e+00  0.0000000000000000e+00 0.0000000000000000e+00 0.0000000000000000e+00  0.0000000000000000e+00 0.0000000000000000e+00 0.0000000000000000e+00  0.0000000000000000e+00 0.0000000000000000e+00 0.0000000000000000e+00  0.0000000000000000e+00 0.0000000000000000e+00 0.0000000000000000e+00  0.0000000000000000e+00 0.0000000000000000e+00 0.0000000000000000e+00  0.0000000000000000e+00 0.0000000000000000e+00 0.0000000000000000e+00  0.0000000000000000e+00 0.0000000000000000e+00 0.0000000000000000e+00  0.0000000000000000e+00 0.0000000000000000e+00 0.0000000000000000e+00  0.0000000000000000e+00 0.0000000000000000e+00 0.0000000000000000e+00  0.0000000000000000e+00 0.0000000000000000e+00 0.0000000000000000e+00  0.0000000000000000e+00 0.0000000000000000e+00 0.0000000000000000e+00  0.0000000000000000e+00 0.0000000000000000e+00 0.0000000000000000e+00  0.0000000000000000e+00 0.0000000000000000e+00 0.0000000000000000e+00  0.0000000000000000e+00 0.0000000000000000e+00 0.0000000000000000e+00  0.0000000000000000e+00 0.0000000000000000e+00 0.0000000000000000e+00  0.0000000000000000e+00 0.0000000000000000e+00 0.0000000000000000e+00  0.0000000000000000e+00 0.0000000000000000e+00 0.0000000000000000e+00  0.0000000000000000e+00 0.0000000000000000e+00 0.0000000000000000e+00  0.0000000000000000e+00 0.0000000000000000e+00 0.0000000000000000e+00  0.0000000000000000e+00 0.0000000000000000e+00 0.0000000000000000e+00  0.0000000000000000e+00 0.0000000000000000e+00 0.0000000000000000e+00  0.0000000000000000e+00 0.0000000000000000e+00 0.0000000000000000e+00  0.0000000000000000e+00 0.0000000000000000e+00 0.0000000000000000e+00  0.0000000000000000e+00 0.0000000000000000e+00 0.0000000000000000e+00  0.0000000000000000e+00 0.0000000000000000e+00 0.0000000000000000e+00  0.0000000000000000e+00 0.0000000000000000e+00 0.0000000000000000e+00  0.0000000000000000e+00 0.0000000000000000e+00 0.0000000000000000e+00  0.0000000000000000e+00 0.0000000000000000e+00 0.0000000000000000e+00  0.0000000000000000e+00 0.0000000000000000e+00 0.0000000000000000e+00  0.0000000000000000e+00 0.0000000000000000e+00 0.0000000000000000e+00  0.0000000000000000e+00 0.0000000000000000e+00 0.0000000000000000e+00  0.0000000000000000e+00 0.0000000000000000e+00 0.0000000000000000e+00  0.0000000000000000e+00 0.0000000000000000e+00 0.0000000000000000e+00  0.0000000000000000e+00 0.0000000000000000e+00 0.0000000000000000e+00  0.0000000000000000e+00 0.0000000000000000e+00 0.0000000000000000e+00  0.0000000000000000e+00 0.0000000000000000e+00 0.0000000000000000e+00  0.0000000000000000e+00 0.0000000000000000e+00 0.0000000000000000e+00  0.0000000000000000e+00 0.0000000000000000e+00 0.0000000000000000e+00  0.0000000000000000e+00 0.0000000000000000e+00 0.0000000000000000e+00  0.0000000000000000e+00 0.0000000000000000e+00 0.0000000000000000e+00  0.0000000000000000e+00 0.0000000000000000e+00 0.0000000000000000e+00  0.0000000000000000e+00 0.0000000000000000e+00 0.0000000000000000e+00  0.0000000000000000e+00 0.0000000000000000e+00 0.0000000000000000e+00  0.0000000000000000e+00 0.0000000000000000e+00 0.0000000000000000e+00  0.0000000000000000e+00 0.0000000000000000e+00 0.0000000000000000e+00  0.0000000000000000e+00 0.0000000000000000e+00 0.0000000000000000e+00  0.0000000000000000e+00 0.0000000000000000e+00 0.0000000000000000e+00  0.0000000000000000e+00 0.0000000000000000e+00 0.0000000000000000e+00  0.0000000000000000e+00 0.0000000000000000e+00 0.0000000000000000e+00  0.0000000000000000e+00 0.0000000000000000e+00 0.0000000000000000e+00  0.0000000000000000e+00 0.0000000000000000e+00 0.0000000000000000e+00  0.0000000000000000e+00 0.0000000000000000e+00 0.0000000000000000e+00  0.0000000000000000e+00 0.0000000000000000e+00 0.0000000000000000e+00  0.0000000000000000e+00 0.0000000000000000e+00 0.0000000000000000e+00  0.0000000000000000e+00 0.0000000000000000e+00 0.0000000000000000e+00  0.0000000000000000e+00 0.0000000000000000e+00 0.0000000000000000e+00  0.0000000000000000e+00 0.0000000000000000e+00 0.0000000000000000e+00  0.0000000000000000e+00 0.0000000000000000e+00 0.0000000000000000e+00  0.0000000000000000e+00 0.0000000000000000e+00 0.0000000000000000e+00  0.0000000000000000e+00 0.0000000000000000e+00 0.0000000000000000e+00  0.0000000000000000e+00 0.0000000000000000e+00 0.0000000000000000e+00  0.0000000000000000e+00 0.0000000000000000e+00 0.0000000000000000e+00  0.0000000000000000e+00 0.0000000000000000e+00 0.0000000000000000e+00  0.0000000000000000e+00 0.0000000000000000e+00 0.0000000000000000e+00  0.0000000000000000e+00 0.0000000000000000e+00 0.0000000000000000e+00  0.0000000000000000e+00 0.0000000000000000e+00 0.0000000000000000e+00  0.0000000000000000e+00 0.0000000000000000e+00 0.0000000000000000e+00  0.0000000000000000e+00 0.0000000000000000e+00 0.0000000000000000e+00  0.0000000000000000e+00 0.0000000000000000e+00 0.0000000000000000e+00  0.0000000000000000e+00 0.0000000000000000e+00 0.0000000000000000e+00  0.0000000000000000e+00 0.0000000000000000e+00 0.0000000000000000e+00  0.0000000000000000e+00 0.0000000000000000e+00 0.0000000000000000e+00  0.0000000000000000e+00 0.0000000000000000e+00 0.0000000000000000e+00  0.0000000000000000e+00 0.0000000000000000e+00 0.0000000000000000e+00  0.0000000000000000e+00 0.0000000000000000e+00 0.0000000000000000e+00  0.0000000000000000e+00 0.0000000000000000e+00 0.0000000000000000e+00  0.0000000000000000e+00 0.0000000000000000e+00 0.0000000000000000e+00  0.0000000000000000e+00 0.0000000000000000e+00 0.0000000000000000e+00  0.0000000000000000e+00 0.0000000000000000e+00 0.0000000000000000e+00  0.0000000000000000e+00 0.0000000000000000e+00 0.0000000000000000e+00  0.0000000000000000e+00 0.0000000000000000e+00 0.0000000000000000e+00  0.0000000000000000e+00 0.0000000000000000e+00 0.0000000000000000e+00  0.0000000000000000e+00 0.0000000000000000e+00 0.0000000000000000e+00  0.0000000000000000e+00 0.0000000000000000e+00 0.0000000000000000e+00  0.0000000000000000e+00 0.0000000000000000e+00 0.0000000000000000e+00  0.0000000000000000e+00 0.0000000000000000e+00 0.0000000000000000e+00  0.0000000000000000e+00 0.0000000000000000e+00 0.0000000000000000e+00  0.0000000000000000e+00 0.0000000000000000e+00 0.0000000000000000e+00  0.0000000000000000e+00 0.0000000000000000e+00 0.0000000000000000e+00  0.0000000000000000e+00 0.0000000000000000e+00 0.0000000000000000e+00  0.0000000000000000e+00 0.0000000000000000e+00 0.0000000000000000e+00  0.0000000000000000e+00 0.0000000000000000e+00 0.0000000000000000e+00  0.0000000000000000e+00 0.0000000000000000e+00 0.0000000000000000e+00  0.0000000000000000e+00 0.0000000000000000e+00 0.0000000000000000e+00  0.0000000000000000e+00 0.0000000000000000e+00 0.0000000000000000e+00  0.0000000000000000e+00 0.0000000000000000e+00 0.0000000000000000e+00  0.0000000000000000e+00 0.0000000000000000e+00 0.0000000000000000e+00  0.0000000000000000e+00 0.0000000000000000e+00 0.0000000000000000e+00  0.0000000000000000e+00 0.0000000000000000e+00 0.0000000000000000e+00  0.0000000000000000e+00 0.0000000000000000e+00 0.0000000000000000e+00  0.0000000000000000e+00 0.0000000000000000e+00 0.0000000000000000e+00  0.0000000000000000e+00 0.0000000000000000e+00 0.0000000000000000e+00  0.0000000000000000e+00 0.0000000000000000e+00 0.0000000000000000e+00  0.0000000000000000e+00 0.0000000000000000e+00 0.0000000000000000e+00  0.0000000000000000e+00 0.0000000000000000e+00 0.0000000000000000e+00  0.0000000000000000e+00 0.0000000000000000e+00 0.0000000000000000e+00  0.0000000000000000e+00 0.0000000000000000e+00 0.0000000000000000e+00  0.0000000000000000e+00 0.0000000000000000e+00 0.0000000000000000e+00  0.0000000000000000e+00 0.0000000000000000e+00 0.0000000000000000e+00  0.0000000000000000e+00 0.0000000000000000e+00 0.0000000000000000e+00  0.0000000000000000e+00 0.0000000000000000e+00 0.0000000000000000e+00  0.0000000000000000e+00 0.0000000000000000e+00 0.0000000000000000e+00  0.0000000000000000e+00 0.0000000000000000e+00 0.0000000000000000e+00  0.0000000000000000e+00 0.0000000000000000e+00 0.0000000000000000e+00  0.0000000000000000e+00 0.0000000000000000e+00 0.0000000000000000e+00  0.00000000