<?xml version="1.0"?>
<VTKFile type="UnstructuredGrid"  version="0.1"  >
<UnstructuredGrid>
<Piece  NumberOfPoints="1067" NumberOfCells="1963">
<Points>
<DataArray  type="Float64"  NumberOfComponents="3"  format="ascii">1 0.3333333333333333 0  0.3333333333333333 0.3333333333333333 0  0.3333333333333333 1 0  0 1 0  0 0 0  1 0 0  0 0.5 0  0.5 0 0  0.3333333333333333 0.6666666666666666 0  0.6666666666666666 0.3333333333333333 0  0 0.75 0  0.25 0 0  0 0.25 0  0.75 0 0  0.1666666666666667 1 0  1 0.1666666666666667 0  0.3333333333333333 0.8333333333333333 0  0.375 0.1458333333333333 0  0.1888706140350877 0.2028508771929824 0  0.3333333333333333 0.5 0  0.8333333333333333 0.3333333333333333 0  0.1524989287154668 0.388331190764267 0  0.5 0.3333333333333333 0  0.5833333333333333 0.1666666666666667 0  0.1458333333333333 0.625 0  0.1583333333333333 0.825 0  0.825 0.1583333333333333 0  0.125 0 0  0 0.125 0  0 0.625 0  0 0.375 0  0.375 0 0  0.625 0 0  0 0.875 0  0.875 0 0  0.7057909604519773 0.2096045197740113 0  0.2033782928772914 0.5081924393159372 0  0.2229753521126761 0.720569248826291 0  0.2420454545454545 0.9087121212121212 0  0.9087121212121212 0.2420454545454545 0  0.4166666666666666 0.3333333333333333 0  0.4732142857142856 0.2157738095238095 0  0.6750921898496802 0.1010647141290868 0  0.3333333333333333 0.4166666666666666 0  0.4768915210573477 0.1066808275729647 0  0.1147181409008132 0.1147181409008132 0  0.219827215200512 0.1015435406570343 0  0.9154835390946502 0.0998456790123457 0  0.09984567901234567 0.9154835390946502 0  0.08229580025091013 0.3125 0  0.2490424622725705 0.6032672531067658 0  0.1006393784575282 0.5301568362439949 0  0.1169995413985014 0.727192736995927 0  0.2263966689731509 0.3065158354789739 0  0.2966728635224111 0.2224517248151044 0  0.09043699241737507 0.2104089341806989 0  0.3125 0.07291666666666667 0  0.07292806175162128 0.4396297689259239 0  0.6224176247481331 0.2512911876259334 0  0.239864329746879 0.4219752441630512 0  0.5625 0.06938154200389178 0  0.75 0.3333333333333333 0  0.7927489005587869 0.2475675126718038 0  0.3859676904520978 0.2461869149974528 0  0.2462310606060606 0.8208143939393939 0  0.7653408376112384 0.08966311200871162 0  0.06732456140350877 0.8125 0  0.3333333333333333 0.9166666666666666 0  0.9166666666666666 0.3333333333333333 0  0.08333333333333333 1 0  0.25 1 0  1 0.08333333333333333 0  1 0.25 0  0.3333333333333333 0.5833333333333333 0  0.3333333333333333 0.75 0  0.5833333333333333 0.3333333333333333 0  0.0625 0 0  0.07291666666666666 0.6595905945441375 0  0.5475816768684841 0.2345166678984481 0  0.1528924117958546 0.2744993329916797 0  0.8411372533802133 0.08406325820630503 0  0.2996637983602427 0.1471631728340777 0  0.4375 0 0  0.4054493459461466 0.07291666666666667 0  0.1440801191314338 0.4626342544081788 0  0.1716727459783015 0.9273685933408156 0  0.8968270669659558 0.1702183875794987 0  0 0.0625 0  0.1875 0 0  0 0.5625 0  0.1617554577346029 0.06411357198912754 0  0.7547177919703033 0.1591425659812248 0  0.2702765804490694 0.5345649711785327 0  0.08689030765479462 0.5948977651265637 0  0.7310390069598418 0.2703457257914622 0  0.9375 0 0  0 0.9375 0  0.4447477682500287 0.2744608764698752 0  0.1606803622837728 0.5597358803146593 0  0.6438968569972591 0.1900329824943801 0  0.2840816202988848 0.375 0  0.08880121935117018 0.3768893831475786 0  0.05501898908686768 0.09374999999999997 0  0.6875 0 0  0.8125 0 0  0 0.8125 0  0.5625 0 0  0 0.4375 0  0 0.1875 0  0 0.3125 0  0.3125 0 0  0 0.6875 0  0.2481953317884629 0.1828222069759379 0  0.237975717832275 0.2447888085739308 0  0.200176069352744 0.7786785170136837 0  0.2659174273276675 0.668564588774316 0  0.2014269398862459 0.6590442473968234 0  0.5361902489011917 0.1258889624633807 0  0.0675070920211801 0.1536645476496686 0  0.2888145418135863 0.4583333333333333 0  0.4389152459630969 0.1600092138755295 0  0.06106116270695027 0.7517361165768591 0  0.7150766468061498 0.05467962723819628 0  0.875 0.290973532000503 0  0.2909735320005029 0.875 0  0.8526144869835004 0.2144309675619541 0  0.9576401986671697 0.2083333333333333 0  0.2041847451790633 0.8628607093663911 0  0.9510163659495721 0.2843496992829054 0  0.2916666666666666 0.9583333333333333 0  0.09375 0.04966715310055026 0  0.6119161044147912 0.109672485429145 0  0.3311579498979588 0.2725512966323962 0  0.226425945410618 0.3650275865962277 0  0.1369397361142181 0.1712827978808029 0  0.2809701888780682 0.724725903187628 0  0.1379758826391655 0.3313643799237706 0  0.4586557180124523 0.05280132961106423 0  0.6887598321031895 0.1558102714243457 0  0.65625 0.04745742439875293 0  0.2861303319373879 0.7809153736790874 0  0.5038734826777268 0.2743345010629015 0  0.6773935352591479 0.2570263390181576 0  0.2798361614180057 0.3200395848847201 0  0.4949315857333921 0.1639857595809101 0  0.3380360928888468 0.186391247091096 0  0.1688076847263596 0.7050048004434435 0  0.1694932372870325 0.1258468186031997 0  0.1076591942820013 0.8563894303660385 0  0.05624279564308041 0.8796546858602379 0  0.125 1 0  0.8864787227825769 0.05347591410888117 0  0.9476420027807178 0.1460305506667086 0  0.2083333333333333 1 0  0.213464560872628 0.04765155683629457 0  0.1244815016517538 0.6741396688406132 0  0.1465842514222262 0.7723276599236152 0  0.04547383511106311 0.53125 0  0.2148758403578392 0.5611737930029497 0  0.3333333333333333 0.625 0  0.5120285103269483 0.05200579557286625 0  0.5557882597572179 0.2874233127303565 0  0.375 0.3333333333333333 0  0.05524798880942433 0.9506415704763231 0  0.9506415704763231 0.05524798880942434 0  0.1972666160395715 0.4547772398129902 0  0.04497829106973091 0.3487936014085283 0  0.05790539181627354 0.2591848609776979 0  0.8711365685983223 0.1257482348431603 0  0.2656491149947962 0.04983052048065093 0  0.8005870837483613 0.050967748851606 0  0.7230963420004116 0.1181590083901302 0  0.4218965800639618 0.2089072825214489 0  0.2811906938680201 0.2700269437372825 0  0.2495323619810901 0.4891505615133008 0  0.1991280016626992 0.6088690683261796 0  0.1409277024673874 0.2232207459103052 0  0.1468243620559488 0.512134886024921 0  0.03740774492937259 0.40625 0  0.2155422481162296 0.950793421692112 0  0.212106654032322 0.1498280878297097 0  0.2713550318729565 0.1040361211330102 0  0.1546665765869578 0.8783505049416189 0  0.6100874230054322 0.06146588433646355 0  0.7902906254281675 0.1962338398758094 0  0.1067887845369411 0.2582214394389009 0  0.3589746729730733 0.09632528030879431 0  0.3550972168408855 0.0461845191969495 0  0.7916666666666666 0.3333333333333333 0  0.04616482742057831 0.4815335788736005 0  0.7513486987797579 0.2238243946198433 0  0.8259111874430654 0.2843602986749449 0  0.1145135976767541 0.4167726763769093 0  0.09410347318951218 0.4826526468125477 0  0.1812616873741859 0.3506638009287041 0  0.04554546899361216 0.04637072539374764 0  0.197422420807303 0.4019311843643738 0  0.4299858672887971 0.1134643652332322 0  0.0461436106684496 0.1953024172515056 0  0.625 0.3333333333333333 0  0.6460078293604408 0.2915217509574419 0  0.6015642854289754 0.209584508987618 0  0.07463129964138498 0.7066466298758631 0  0.03783322102651011 0.59375 0  0.3958333333333333 0.2916919124978751 0  0.114022055899838 0.8100633326221395 0  0.7895154684417436 0.1289111178903929 0  0.600799783427331 0.2916355696893704 0  0.84375 0.03418030363172077 0  0.1917755503464407 0.2491670256216106 0  0.7083333333333333 0.3333333333333333 0  0.6478078564061464 0.1369553479973995 0  0.03144377545163998 0.71875 0  0.5384938547867213 0.1863839274804893 0  0.1306476667572267 0.952317581765362 0  0.2892367660002514 0.83086877593361 0  0.2481080288456043 0.865149100485581 0  0.03366228070175439 0.8414367919466372 0  0.7708333333333333 0.2927142374723782 0  0.2495866311601397 0.7559396780718943 0  0.2937576828079838 0.6041666666666666 0  0.3821593549415586 0.1894814149447491 0  0.3445642076128221 0.2302669507453929 0  0 0.78125 0  0.9599981637499104 0.1031385892720535 0  0.7574153542120744 0.04322853446886453 0  0.204050893649534 0.8206805424098645 0  0.2913165163454587 0.4163901636011871 0  0.2916638078313682 0.9166638078313682 0  0.3333333333333333 0.7083333333333333 0  0.3333333333333333 0.9583333333333333 0  0.3333333333333333 0.875 0  0.875 0.3333333333333333 0  0.4583333333333333 0.3333333333333333 0  0.3333333333333333 0.4583333333333333 0  0.9583333333333333 0.3333333333333333 0  1 0.2083333333333333 0  0.04166666666666666 1 0  1 0.04166666666666666 0  1 0.125 0  0.2916666666666666 1 0  0.3333333333333333 0.375 0  1 0.2916666666666666 0  0.5416666666666666 0.3333333333333333 0  0.3333333333333333 0.7916666666666666 0  0.3333333333333333 0.5416666666666666 0  0.1016069174729423 0.7681284775865405 0  0.6875 0.2973545198413665 0  0.04114790012545506 0.3075231959253509 0  0.2587887510102507 0.1431391960771147 0  0.1193245108135817 0.5679554230146414 0  0.1825380957195719 0.3068227309779981 0  0.1661760896432419 0.4282623189518068 0  0.1070276360235576 0.637347074818211 0  0 0.65625 0  0.03997879087021122 0.6348742039918381 0  0 0.90625 0  0.2979556257795157 0.6441983605310423 0  0.1769907023833003 0.7450354670868354 0  0.854811597523172 0.2553331016660396 0  0.2978902581390474 0.5640107983913386 0  0.422190360774741 0.03677291521413537 0  0.11934455203393 0.2960881760558284 0  0.288741907148047 0.4986855138502997 0  0.1618938936523733 0.6611871845610839 0  0.2987993331180339 0.6898492748391704 0  0.1759603428125616 0.1655905128188335 0  0.3370542346566173 0.1307683920597218 0  0.03886648645263804 0.6798368859108999 0  0.582137712504897 0.2556718560956591 0  0.5811816160381472 0.03469077100194589 0  0.5279722974875536 0.08768410328535482 0  0.5719976896208205 0.108182244938876 0  0.5126558232993131 0.216186636111048 0  0.2544607546659688 0.945918033212819 0  0.9136179827478804 0.2946597939900734 0  0.96132646065674 0.2469513160812137 0  0.6417305609928732 0.08267582195367543 0  0.8333983588276207 0.1212699393091796 0  0.8033911384781 0.08892182866041928 0  0.07360238009281882 0.5582453860506698 0  0 0.15625 0 
[...]
<PointData  Scalars="f_45"> 
<DataArray  type="Float64"  Name="f_45"  format="ascii">5.0556611428841318e-02  1.3156546457558415e-02  7.3296633743772463e-09  -2.9663407643048956e-09  2.7622748627212167e-02  5.7660108982203105e-02  7.7386077726063745e-03  3.3529135225650437e-02  4.1856937349289318e-03  2.8629230419714824e-02  2.4144868206746051e-03  2.7534092755566553e-02  1.6740630962443780e-02  4.4297702119432493e-02  4.0582450838654081e-09  5.2853917309544231e-02  1.5226534430576929e-03  2.2669890246480782e-02  1.7436800228761779e-02  8.1134421106272853e-03  3.8982036514250980e-02  9.6148006953911194e-03  1.9584804025126495e-02  2.9194463456438505e-02  3.1859417362146291e-03  4.0828662455126634e-04  4.2429546066281673e-02  2.6838570369561152e-02  2.2202962083572766e-02  4.6573853166290858e-03  1.1779927643371263e-02  2.9814674165719514e-02  3.8438522540793114e-02  8.6484456936306367e-04  5.0810357106455997e-02  3.3976920543625631e-02  6.0670386448227155e-03  1.8774728643697958e-03  2.3317662509657054e-04  4.5490165781876465e-02  1.5904498640277254e-02  2.2569152581262263e-02  3.6223147200847135e-02  1.0582835384300087e-02  2.7505495554309173e-02  2.1654567741373754e-02  2.2473690891094279e-02  4.9564705868726043e-02  1.1618988718996328e-04  1.2945486161960168e-02  4.2271663922170714e-03  5.5580006393262989e-03  1.5665308206937701e-03  1.2888206320276650e-02  1.7434138656146281e-02  1.7319163997805070e-02  2.4959223389053597e-02  8.4261164123206386e-03  2.8167489478176200e-02  8.8815644515273396e-03  3.2475697969824628e-02  3.3692779217471130e-02  3.8051205482093300e-02  1.8349024181262528e-02  9.1344971502818921e-04  4.1376018054543717e-02  9.6897861724511180e-04  5.5679840745637089e-04  4.4477737417954133e-02  8.5207377846347527e-09  -3.0086902974707056e-08  5.4995511243758441e-02  5.1347031675803123e-02  5.9799697101339672e-03  2.7106259217294817e-03  2.3884832070726687e-02  2.7066388445466733e-02  2.9942377875468041e-03  2.4997238606792201e-02  1.4136306430592892e-02  4.5790254803455617e-02  2.1124379774313886e-02  3.1510616389668927e-02  2.6960793671254105e-02  7.2153353204847479e-03  4.0903891207903473e-05  4.6434279881763900e-02  2.4936003656490815e-02  2.6989831183114578e-02  6.0928143871471939e-03  2.3998032241235104e-02  3.8330443742378040e-02  6.1116134331018999e-03  4.1382984130673680e-03  3.3781442624141289e-02  5.4205425341395920e-02  2.9115947156012811e-04  1.9165171811880776e-02  4.6001829835126823e-03  3.1280642407113930e-02  1.0953928770374273e-02  1.0396301558503846e-02  2.2967718717774227e-02  4.1264740445406546e-02  4.7493417500370824e-02  1.5659397438510367e-03  3.5856020865596687e-02  9.6437091410204560e-03  1.9446806160414824e-02  1.4168136163006110e-02  2.8482862075616688e-02  3.4436432142533491e-03  1.8750065768387558e-02  1.5700459862771424e-02  9.8121956235866590e-04  3.1760515379778724e-03  2.6963176024991046e-03  2.8848150070218851e-02  2.0118361912968334e-02  8.4877797582798859e-03  2.3796551870891899e-02  1.7081945505277442e-03  4.0149758465160883e-02  4.2341337632264178e-02  7.2786923248843261e-04  4.2556223860892660e-02  4.9348107523093515e-02  3.1598802326967889e-04  4.7541501331065716e-02  1.0021969463719596e-07  2.4723230771149397e-02  3.2831944966960146e-02  1.5743138979612690e-02  1.0639036751764750e-02  1.8922519622709941e-02  2.4366410061024040e-03  1.1794101479746379e-02  2.9494301532081869e-02  3.4833532270424662e-02  3.7605489916605908e-02  1.7219432823139284e-03  2.1613054330527889e-02  3.1011600485653990e-02  1.2801971016710696e-02  2.5578390903079593e-02  1.9913064002312984e-02  1.7945674811393872e-03  2.1088773757051555e-02  3.5286804312710692e-04  4.7713133843249193e-04  2.3895902918565415e-08  4.9434441942064603e-02  5.0174442223529972e-02  4.3710193968842179e-08  2.4997740277809610e-02  2.3420066237124218e-03  9.0817988469292727e-04  6.1474560797284642e-03  4.8244973541679047e-03  5.0376083992535346e-03  3.1349086990631818e-02  2.3649791677736731e-02  1.4388165290051979e-02  8.8802495149107537e-08  5.3015624473199879e-02  7.5385719439628246e-03  1.1971186762463885e-02  1.5464485741480382e-02  4.6155368040441784e-02  2.5397890573431791e-02  4.4775683710791915e-02  3.8034643016338986e-02  2.1072016520900162e-02  1.4979728957813115e-02  7.0295243532129594e-03  3.6510873238671808e-03  1.6476765017846270e-02  5.8050888290961892e-03  1.0016182540100629e-02  2.0859792354016939e-07  2.0086642258853812e-02  2.2847624016036919e-02  8.1502025852842023e-05  3.4869064049104302e-02  3.9249352958985191e-02  1.5051925148353511e-02  2.4703058806159403e-02  2.7073629495878087e-02  3.6309576793858767e-02  7.4955932273843336e-03  3.6180478814435250e-02  3.9316563297322263e-02  8.7920651071598521e-03  6.9053641370957746e-03  1.0987137160863551e-02  2.5166700615472312e-02  9.2027665778183741e-03  2.5687725829952684e-02  1.8434916333694169e-02  2.6216240358117072e-02  2.8348035803996519e-02  2.8460358731784045e-02  2.1985978016372601e-03  4.7527165414063171e-03  1.6740467869504526e-02  6.6031547626517321e-04  4.1312844461583155e-02  2.5865731167168768e-02  4.7773099013762553e-02  1.5276967646160843e-02  3.1129650762752391e-02  3.3442552775664595e-02  2.5012452842452155e-03  2.6407403969977421e-02  3.0876844899501163e-07  1.1692925788624510e-03  5.5129802845240035e-04  9.6239434212806003e-04  3.5709020578192557e-02  1.6578059841280788e-03  4.8364911360971718e-03  2.0800763980822926e-02  1.7985929458299188e-02  1.9692900922656338e-03  5.2084195720245065e-02  4.2799965115605326e-02  6.1615249390072904e-04  9.7872336919937932e-03  3.3605084531265642e-04  3.4076844697705239e-03  -1.7990682995176889e-08  1.0221553935385688e-03  4.1693239865040227e-02  1.7655027466141317e-02  9.3059280366146972e-03  4.7408536560348158e-02  5.2009050395132463e-02  4.5629114298187518e-09  5.6270442856101437e-02  5.3851692001322032e-02  1.8316317254328116e-08  1.1912079382840848e-02  5.0909657737074905e-02  2.1663549753183950e-02  2.0892001211909811e-03  7.0031634351655526e-03  1.1562108236216359e-03  3.0593195249016904e-02  1.3654527277929162e-02  2.0794665323052929e-02  4.4991565728490657e-03  1.2727797955542479e-02  8.2702432201587402e-03  3.1086557535339771e-03  4.0233948521958022e-03  3.8577534099015817e-03  5.6670063675638488e-04  4.0722020130316561e-03  1.2649726698761589e-03  4.1741668047874048e-02  5.8210395484851246e-03  2.9207225076620869e-02  1.3340553571050856e-02  7.3445919170033996e-03  2.5021798668542774e-03  3.2397694985748602e-03  1.9191450616425101e-02  2.2576712971146429e-02  3.0418698821615573e-03  2.5950495456327952e-02  3.4885953814115217e-02  3.0252941134678916e-02  3.1119173295854952e-02  2.4135833302571741e-02  7.4262325329235625e-05  4.4823631141182534e-02  4.8856579559487058e-02  3.5373477708427969e-02  4.4086216189427631e-02  4.3496494032509520e-02  5.1133522458245446e-03  2.0819080616191612e-02  3.7167003922813870e-08  1.9299147293346263e-02  1.4247415716537723e-08  5.5921535001630426e-02  1.5283069417584774e-02  3.1619946089254981e-02  6.5373522482602385e-03  1.9491850322739090e-02  1.5227629149893430e-03  5.2497977032162101e-02  2.5127833555128751e-02  2.3380662944031509e-02  4.7812812742423980e-02  2.1558572064429331e-02  3.3959839948867975e-03  2.4971073350627173e-02  8.8164385289009224e-03  2.6543366827563780e-02  1.4105849852741770e-04  4.3939858775125122e-02  2.0052121449874142e-07  4.7976551554976113e-02  3.6874955548127121e-05  4.6949176804565979e-02  3.3503845755558120e-02  2.2997988509740767e-02  5.0883605240920086e-03  5.9860574230498611e-03  1.9982419881534125e-02  1.8075746169867003e-02  2.8167576599139244e-04  3.1125768040386404e-02  2.2955761548691497e-02  5.2144450479932630e-02  1.5431279383254554e-02  1.7014564023390147e-02  3.5904604485538782e-02  2.1633321995110349e-02  4.5877446260652918e-02  1.4180770451037548e-02  1.1871198285864313e-02  2.1519612946398797e-02  2.0586914997000601e-02  2.1328642673256897e-02  2.3779920452392939e-02  2.3493105710475446e-02  2.5417478639254625e-02  7.7813004524155708e-03  6.4891353627560041e-03  4.0192395229309258e-02  6.6405916199735492e-04  8.0776973074033268e-03  2.7995673608505075e-02  8.6580506755175070e-03  3.7314436888823007e-03  2.4608603018377983e-03  2.4038993804329288e-03  4.0331637069804076e-02  3.9700721923260331e-02  2.0041477022582001e-02  5.0833801089367130e-02  2.7390091934387288e-02  2.7527697258645751e-02  3.1443482150715768e-02  1.1544216583011755e-02  1.0579208495279222e-02  1.3893873488507291e-02  3.2453801305195318e-02  5.1748261493214810e-03  3.8988379219044847e-03  3.3130219285062858e-02  4.4649260966589437e-02  3.6364158747055693e-03  2.2461413046082991e-02  1.4234731108913722e-02  3.4044703546440042e-02  3.5898716652814751e-02  2.6869085012416683e-02  2.2611944260804668e-02  2.5648497815620706e-02  2.2776991744787343e-02  1.8880237437415345e-02  1.7440846335608457e-02  2.7308798963191851e-02  2.6286110784988850e-02  2.9368324100035075e-02  1.3099123928844701e-03  2.9649877982845775e-02  4.2760171128706094e-02  3.6998398700032978e-02  9.3277326565479237e-03  4.8370176322168210e-02  1.6493077572604264e-02  1.2035771271733419e-02  9.8593921393347883e-03  3.0636433016329769e-03  3.9752325692958813e-02  3.0822795070779462e-02  6.6907977195670753e-03  2.3575413735355412e-02  2.4084639710400202e-02  3.6474146112125044e-02  1.1860777244817409e-02  5.0621628022526496e-02  2.7956603239362603e-02  5.5736087901623772e-03  1.5869316038604281e-04  4.1279602115351248e-02  2.9100013917309559e-02  1.6234352962825223e-02  1.7208134593801289e-02  1.8129043013561576e-02  1.8506084280791757e-02  1.2906866121434870e-03  6.9715404828580947e-03  3.9821345135361418e-02  3.2479280951106582e-02  3.0615161492397354e-02  1.2050196073240403e-03  2.9068851481941441e-03  4.9138122702897649e-02  5.3469119787333055e-03  1.0684217689320886e-02  1.2947296412334570e-02  6.8955569230468054e-03  2.7209718310789967e-02  3.9826426381663442e-02  2.6907573134311708e-02  3.4654133959464511e-02  3.7110547293103938e-02  6.9235174661873300e-04  1.3932754347839849e-03  4.0108916299705210e-03  2.8230168679060419e-02  2.8372934555203590e-02  5.0779332476406621e-03  1.5607694545685905e-02  1.4784258216393143e-04  3.8014257273014745e-02  3.9695502686909037e-02  1.8672022685377362e-02  1.2432523259100045e-03  2.0638877600634292e-03  1.6777180572241672e-03  1.8475781913079737e-02  2.6325419585271539e-02  1.6756266962853698e-02  1.6738641617111371e-02  2.0433581119677566e-02  1.7913211008376603e-02  3.6146734569605056e-03  6.1384603305288951e-03  2.8099629480157561e-04  3.2991422675790381e-02  8.2971448632807466e-03  -6.1099894412893314e-08  2.6184409036446893e-02  4.6145430198012281e-02  3.7366139610465622e-02  3.7819812657168607e-04  1.4037988721071714e-02  2.0634435077170644e-03  3.4047149760537266e-04  5.8139192900874689e-04  1.1073044017646644e-03  4.7543075427928391e-02  4.0635202801526403e-02  4.3543355686214258e-02  4.2189413096164124e-04  9.4641458444038734e-03  9.5960767708326144e-04  2.6625923382791111e-02  6.4161876044046954e-04  1.0290565138521439e-02  2.3249047625515662e-02  4.9663857570629209e-02  4.6253793332499960e-02  1.5927836437085151e-03  1.6684913618637904e-02  1.0863107139026881e-02  6.5593836138881775e-04  -8.7719256481604506e-09  4.8963172964625643e-02  -4.3368731278285501e-08  2.1818021956345607e-04  1.9729980672704154e-02  3.0294015893263682e-04  1.2838986282379568e-02  2.5740851920607682e-02  2.4081638540526626e-02  3.7901376000310558e-02  1.0932353096308295e-02  9.6123096517314235e-03  1.1916128496644040e-02  3.2949708323545150e-02  2.7563840337840959e-03  5.4946341998359433e-02  1.4048748280914663e-08  4.2405171835761604e-02  1.1176498107017140e-02  2.2402778750160359e-03  2.6798759262524747e-02  1.9449762296432397e-03  3.7268171329624414e-02  1.6260917036621733e-02  1.3010652248530265e-03  5.0711908421962333e-02  2.1927160681882715e-02  3.0508176223450662e-02  1.9218840847638190e-02  3.7982868465675487e-02  1.0322506764538861e-08  5.5618091247854912e-02  5.3559705629196395e-02  2.3852969763440538e-02  5.0513006053809180e-03  7.9685425835555306e-03  4.8475018896145056e-02  4.4358805747695913e-02  7.2618592550361175e-04  3.5121846559370500e-02  5.2035069817963381e-02  1.8331520579002245e-03  2.5565906376037003e-08  -7.6868711864688643e-08  4.9844606081191269e-02  2.3956262636249590e-02  3.7453022756041759e-02  2.9931956626795368e-02  2.2260719147694113e-03  2.7488002825882995e-02  2.2092217312230447e-02  1.4052149397801932e-02  2.1458894547958580e-02  3.2898022530008272e-02  5.7791431640184824e-03  1.9735931954783128e-03  3.2505908505141186e-02  3.2031433190577469e-02  7.0642331747210558e-03  2.4962784957136289e-02  1.3051746586719865e-02  1.3000587187071201e-02  1.1773036555537051e-02  5.1683279727798695e-02  2.2847747271124205e-02  1.2388548750555061e-03  9.6119095435387106e-03  2.3798373770652179e-02  2.0560570622369045e-02  1.8606876453456732e-02  1.3125994795994285e-02  2.4158888411204064e-02  2.5618910319888798e-02  4.7608065864922056e-02  5.1652840749805924e-02  4.3140222978772402e-02  3.4106142331934958e-02  4.0472070286696018e-08  8.1102012366915475e-03  4.5696476578108915e-02  2.4237549576954249e-02  1.2784680130905044e-03  1.1854042861201109e-02  4.4556428244911473e-03  2.5879448886382952e-02  2.0174611037924346e-03  6.2774106476648505e-04  1.3592446604018550e-04  6.8898200314365908e-03  7.3174949621185375e-03  1.0197559127799636e-02  1.4552085910082632e-02  2.7123667037237748e-02  2.7172401410814604e-03  2.6812316477963236e-03  1.0584316698621549e-02  8.1420759938880373e-04  2.2765169979226611e-02  2.4200512579996059e-02  2.9865991865229832e-03  2.2303655545995272e-04  8.3931084958378602e-03  3.2010809557431179e-02  8.8898903812566106e-03  8.5494415885408565e-04  1.5202676622501439e-02  3.2020725712153787e-02  1.7250315093473429e-02  2.7529828676779156e-02  2.3751678746032755e-02  4.5160110530808345e-02  4.2941239533160626e-02  2.4931932655823493e-02  2.6697012090539634e-02  6.7009977393079433e-10  2.3811879265129583e-02  2.1708351547951069e-04  4.7174280309160248e-06  1.1489594014246493e-03  1.9653565430162556e-02  2.2323475646511319e-02  1.4212042171573250e-02  1.8418737305382831e-02  5.7390359880815766e-03  2.1946024525473146e-02  2.9646966872984012e-02  3.0008647551027248e-02  3.8609944671883029e-02  4.7864815561566930e-02  4.6095701138005096e-02  4.5847979779131694e-02  2.6091142076222099e-02  -1.6850010318163249e-08  -1.8608462900437754e-08  3.8675428992343448e-02  1.8831734468703420e-04  3.4121522783674002e-02  1.6075470961186174e-02  3.6346166275991632e-02  5.4457873667725391e-03  1.5133229353484089e-02  4.3093829951393103e-02  1.6072352612794057e-02  4.9627496817733884e-03  9.0603941300699566e-04  2.8425916125557744e-02  4.2181180819991747e-03  2.0596020163091224e-02  -1.1159655717691400e-07  1.5337582243621349e-02  1.3808023952025924e-02  2.4715687235752986e-03  6.6977112476011716e-03  7.7265954946014008e-03  -1.1538314474178725e-08  1.0371584748602021e-04  3.1691871125109649e-03  9.6058760081361777e-04  2.2721705003366909e-02  3.2782388171487065e-05  8.0454171188454517e-03  1.2337716258803451e-02  6.4966630422126949e-03  2.0247772659273657e-02  4.1004177570599473e-02  3.8804920137417313e-02  2.5692220814045263e-02  4.4225536486175734e-02  2.6287126496389566e-02  3.8705247679569469e-03  1.4629341883437617e-02  4.1426893003914673e-02  1.1139853891568983e-02  4.5785613464041424e-03  4.2499070519405350e-03  4.6905260792771001e-03  3.4142020657401559e-02  2.5383953120138653e-02  3.5400035756416167e-03  1.9832205708901325e-02  2.1275956704227120e-02  2.0889691441175855e-02  1.5104886361828263e-02  1.4647237692779626e-02  9.6741658470180306e-03  2.0011506092992151e-02  2.6215144484160756e-02  9.6992625329074596e-03  9.2908910865434902e-03  5.3541884826034765e-03  5.3570578662527901e-02  3.1011517805546281e-02  2.0973182031670734e-03  2.4139756931732759e-02  1.8721793606626788e-03  4.1154435042912392e-02  4.4905515901697550e-02  2.9456920495721753e-02  2.5387220747760834e-02  8.8035697438321823e-03  3.3893600572034652e-02  3.6457085589033676e-02  2.5039620390034066e-02  2.6723948962718860e-02  2.7417255722928142e-02  3.9152436742958499e-02  4.7021142145480324e-02  1.6246057867328620e-02  2.5370184791199488e-02  2.2776001697004142e-02  2.8493257819107382e-05  4.9963956779123894e-05  5.2416187874404409e-03  7.6475511594268691e-03  7.1499552224094090e-03  8.2752372321966139e-03  2.6415768257011172e-02  4.9063654955839982e-02  2.3841431847248001e-02  5.5950203143525111e-03  3.6944435544001251e-02  3.7705963415602513e-02  3.5426253775223640e-02  2.0141035054869499e-02  4.1266075227688000e-02  1.8155891813679943e-02  6.2149852646446744e-03  2.8457882949543243e-02  1.9234738987875730e-02  2.6183742597626673e-02  2.6354218972720816e-02  2.4414812772921866e-02  2.1092944897284235e-02  5.0928486482334709e-02  5.0125621181082478e-02  8.5362322260425227e-03  1.4290918410356080e-02  2.1031544288436285e-03  2.5410617276441093e-03  6.4198762796511947e-05  3.6030407037095148e-03  2.7728854722283737e-03  2.1607184175876093e-02  1.5967670195004605e-03  6.4339300641837738e-03  4.5954370951529055e-03  2.8577126075396229e-02  5.1884275593416761e-02  2.9259723619858777e-02  2.8060600539584046e-02  2.9029896649003482e-02  2.8896708612048697e-02  3.4713200763763169e-08  1.7332335010709819e-02  1.6280391825677983e-02  1.5497587149290257e-02  1.8132418110349404e-02  3.5155909820394772e-02  2.1379351209666372e-02  1.7730995729893211e-02  1.2843966183361411e-02  2.1429163542230852e-02  5.4021500657681616e-04  4.1222962424171387e-02  4.1752738081848026e-02  3.9774343223787700e-02  5.3481860678979394e-03  2.2831965637925389e-02  5.3550124473047446e-04  2.7875508399231568e-02  2.7662506085953903e-03  2.6902828071798727e-02  1.9366801767975835e-02  3.7924584569464931e-03  3.5910008706958173e-02  4.6241686627229141e-02  5.4405898098327868e-02  6.8541639289671037e-03  4.9319469097078905e-02  9.6060634305736390e-03  6.5777567830330955e-03  3.6257007090188236e-03  3.3254045308438464e-03  1.3254240081742624e-04  4.9131139907414273e-02  2.3910884472661564e-03  1.9168445920100887e-08  1.2252546962655073e-02  3.4404130398390749e-02  2.5058403250599173e-02  4.6922562374471365e-02  1.7826168144911111e-02  1.6447224383823586e-03  4.3159691658218140e-03  4.3442451911083124e-04  3.9519999478396239e-02  5.4355609234907010e-02  2.7094598886347580e-02  2.4384922039889140e-02  7.3450127929496094e-05  4.6785230790085570e-03  5.4916379993266689e-03  5.5008521759206674e-03  3.3553187655636701e-04  7.4415789584543939e-03  2.8899306815849266e-04  2.9323519604275997e-02  1.5182966303985605e-02  2.7465707147448300e-03  4.2969130188376413e-02  1.4821413951068101e-02  1.9275551067211939e-02  7.0092476678500063e-04  9.2113968232634231e-04  2.2723768528625874e-02  7.7055032927605027e-04  3.6828979589110002e-02  1.8071628969305871e-02  1.6873982300399545e-02  2.9514801172266748e-03  4.8669655576861155e-02  4.4182362146066814e-02  1.1007225336855804e-02  1.3895877670995699e-03  2.0111200612876372e-03  4.1033003553021061e-03  3.9073437229980438e-04  4.9339068040834370e-02  4.1525922910157088e-02  1.2941330707834328e-02  1.4433946936526255e-03  3.0268970110768661e-02  2.7278766254303553e-02  1.5490007188535137e-02  4.3841454831782437e-02  1.5244665340043808e-03  1.8968865135519998e-04  7.5117549661711819e-03  8.9158880677886986e-03  1.1998730295385356e-02  2.4705055116962661e-03  4.4410336130190610e-02  1.8609294545503433e-02  1.1235150444929211e-02  1.4634532818573423e-03  1.3781970466084984e-03  5.6949520978222222e-02  3.0562264182161295e-02  3.3373468378297307e-02  1.6302175686434307e-03  6.0227888887733603e-04  1.9155333594476388e-02  1.0261034842191846e-02  2.1907727757070360e-02  1.0288365355810744e-02  2.3738169586228076e-02  1.3725723528684484e-02  3.9112622995182124e-02  3.4032969471040351e-03  7.4485474709994070e-04  -2.1384848806185173e-09  5.0733678558619828e-02  8.8063001451131584e-04  1.9193398676588865e-02  3.4718475031318923e-05  1.6746645919748487e-02  7.78835