<?xml version="1.0"?>
<VTKFile type="UnstructuredGrid"  version="0.1"  >
<UnstructuredGrid>
<Piece  NumberOfPoints="1067" NumberOfCells="1963">
<Points>
<DataArray  type="Float64"  NumberOfComponents="3"  format="ascii">1 0.3333333333333333 0  0.3333333333333333 0.3333333333333333 0  0.3333333333333333 1 0  0 1 0  0 0 0  1 0 0  0 0.5 0  0.5 0 0  0.3333333333333333 0.6666666666666666 0  0.6666666666666666 0.3333333333333333 0  0 0.75 0  0.25 0 0  0 0.25 0  0.75 0 0  0.1666666666666667 1 0  1 0.1666666666666667 0  0.3333333333333333 0.8333333333333333 0  0.375 0.1458333333333333 0  0.1888706140350877 0.2028508771929824 0  0.3333333333333333 0.5 0  0.8333333333333333 0.3333333333333333 0  0.1524989287154668 0.388331190764267 0  0.5 0.3333333333333333 0  0.5833333333333333 0.1666666666666667 0  0.1458333333333333 0.625 0  0.1583333333333333 0.825 0  0.825 0.1583333333333333 0  0.125 0 0  0 0.125 0  0 0.625 0  0 0.375 0  0.375 0 0  0.625 0 0  0 0.875 0  0.875 0 0  0.7057909604519773 0.2096045197740113 0  0.2033782928772914 0.5081924393159372 0  0.2229753521126761 0.720569248826291 0  0.2420454545454545 0.9087121212121212 0  0.9087121212121212 0.2420454545454545 0  0.4166666666666666 0.3333333333333333 0  0.4732142857142856 0.2157738095238095 0  0.6750921898496802 0.1010647141290868 0  0.3333333333333333 0.4166666666666666 0  0.4768915210573477 0.1066808275729647 0  0.1147181409008132 0.1147181409008132 0  0.219827215200512 0.1015435406570343 0  0.9154835390946502 0.0998456790123457 0  0.09984567901234567 0.9154835390946502 0  0.08229580025091013 0.3125 0  0.2490424622725705 0.6032672531067658 0  0.1006393784575282 0.5301568362439949 0  0.1169995413985014 0.727192736995927 0  0.2263966689731509 0.3065158354789739 0  0.2966728635224111 0.2224517248151044 0  0.09043699241737507 0.2104089341806989 0  0.3125 0.07291666666666667 0  0.07292806175162128 0.4396297689259239 0  0.6224176247481331 0.2512911876259334 0  0.239864329746879 0.4219752441630512 0  0.5625 0.06938154200389178 0  0.75 0.3333333333333333 0  0.7927489005587869 0.2475675126718038 0  0.3859676904520978 0.2461869149974528 0  0.2462310606060606 0.8208143939393939 0  0.7653408376112384 0.08966311200871162 0  0.06732456140350877 0.8125 0  0.3333333333333333 0.9166666666666666 0  0.9166666666666666 0.3333333333333333 0  0.08333333333333333 1 0  0.25 1 0  1 0.08333333333333333 0  1 0.25 0  0.3333333333333333 0.5833333333333333 0  0.3333333333333333 0.75 0  0.5833333333333333 0.3333333333333333 0  0.0625 0 0  0.07291666666666666 0.6595905945441375 0  0.5475816768684841 0.2345166678984481 0  0.1528924117958546 0.2744993329916797 0  0.8411372533802133 0.08406325820630503 0  0.2996637983602427 0.1471631728340777 0  0.4375 0 0  0.4054493459461466 0.07291666666666667 0  0.1440801191314338 0.4626342544081788 0  0.1716727459783015 0.9273685933408156 0  0.8968270669659558 0.1702183875794987 0  0 0.0625 0  0.1875 0 0  0 0.5625 0  0.1617554577346029 0.06411357198912754 0  0.7547177919703033 0.1591425659812248 0  0.2702765804490694 0.5345649711785327 0  0.08689030765479462 0.5948977651265637 0  0.7310390069598418 0.2703457257914622 0  0.9375 0 0  0 0.9375 0  0.4447477682500287 0.2744608764698752 0  0.1606803622837728 0.5597358803146593 0  0.6438968569972591 0.1900329824943801 0  0.2840816202988848 0.375 0  0.08880121935117018 0.3768893831475786 0  0.05501898908686768 0.09374999999999997 0  0.6875 0 0  0.8125 0 0  0 0.8125 0  0.5625 0 0  0 0.4375 0  0 0.1875 0  0 0.3125 0  0.3125 0 0  0 0.6875 0  0.2481953317884629 0.1828222069759379 0  0.237975717832275 0.2447888085739308 0  0.200176069352744 0.7786785170136837 0  0.2659174273276675 0.668564588774316 0  0.2014269398862459 0.6590442473968234 0  0.5361902489011917 0.1258889624633807 0  0.0675070920211801 0.1536645476496686 0  0.2888145418135863 0.4583333333333333 0  0.4389152459630969 0.1600092138755295 0  0.06106116270695027 0.7517361165768591 0  0.7150766468061498 0.05467962723819628 0  0.875 0.290973532000503 0  0.2909735320005029 0.875 0  0.8526144869835004 0.2144309675619541 0  0.9576401986671697 0.2083333333333333 0  0.2041847451790633 0.8628607093663911 0  0.9510163659495721 0.2843496992829054 0  0.2916666666666666 0.9583333333333333 0  0.09375 0.04966715310055026 0  0.6119161044147912 0.109672485429145 0  0.3311579498979588 0.2725512966323962 0  0.226425945410618 0.3650275865962277 0  0.1369397361142181 0.1712827978808029 0  0.2809701888780682 0.724725903187628 0  0.1379758826391655 0.3313643799237706 0  0.4586557180124523 0.05280132961106423 0  0.6887598321031895 0.1558102714243457 0  0.65625 0.04745742439875293 0  0.2861303319373879 0.7809153736790874 0  0.5038734826777268 0.2743345010629015 0  0.6773935352591479 0.2570263390181576 0  0.2798361614180057 0.3200395848847201 0  0.4949315857333921 0.1639857595809101 0  0.3380360928888468 0.186391247091096 0  0.1688076847263596 0.7050048004434435 0  0.1694932372870325 0.1258468186031997 0  0.1076591942820013 0.8563894303660385 0  0.05624279564308041 0.8796546858602379 0  0.125 1 0  0.8864787227825769 0.05347591410888117 0  0.9476420027807178 0.1460305506667086 0  0.2083333333333333 1 0  0.213464560872628 0.04765155683629457 0  0.1244815016517538 0.6741396688406132 0  0.1465842514222262 0.7723276599236152 0  0.04547383511106311 0.53125 0  0.2148758403578392 0.5611737930029497 0  0.3333333333333333 0.625 0  0.5120285103269483 0.05200579557286625 0  0.5557882597572179 0.2874233127303565 0  0.375 0.3333333333333333 0  0.05524798880942433 0.9506415704763231 0  0.9506415704763231 0.05524798880942434 0  0.1972666160395715 0.4547772398129902 0  0.04497829106973091 0.3487936014085283 0  0.05790539181627354 0.2591848609776979 0  0.8711365685983223 0.1257482348431603 0  0.2656491149947962 0.04983052048065093 0  0.8005870837483613 0.050967748851606 0  0.7230963420004116 0.1181590083901302 0  0.4218965800639618 0.2089072825214489 0  0.2811906938680201 0.2700269437372825 0  0.2495323619810901 0.4891505615133008 0  0.1991280016626992 0.6088690683261796 0  0.1409277024673874 0.2232207459103052 0  0.1468243620559488 0.512134886024921 0  0.03740774492937259 0.40625 0  0.2155422481162296 0.950793421692112 0  0.212106654032322 0.1498280878297097 0  0.2713550318729565 0.1040361211330102 0  0.1546665765869578 0.8783505049416189 0  0.6100874230054322 0.06146588433646355 0  0.7902906254281675 0.1962338398758094 0  0.1067887845369411 0.2582214394389009 0  0.3589746729730733 0.09632528030879431 0  0.3550972168408855 0.0461845191969495 0  0.7916666666666666 0.3333333333333333 0  0.04616482742057831 0.4815335788736005 0  0.7513486987797579 0.2238243946198433 0  0.8259111874430654 0.2843602986749449 0  0.1145135976767541 0.4167726763769093 0  0.09410347318951218 0.4826526468125477 0  0.1812616873741859 0.3506638009287041 0  0.04554546899361216 0.04637072539374764 0  0.197422420807303 0.4019311843643738 0  0.4299858672887971 0.1134643652332322 0  0.0461436106684496 0.1953024172515056 0  0.625 0.3333333333333333 0  0.6460078293604408 0.2915217509574419 0  0.6015642854289754 0.209584508987618 0  0.07463129964138498 0.7066466298758631 0  0.03783322102651011 0.59375 0  0.3958333333333333 0.2916919124978751 0  0.114022055899838 0.8100633326221395 0  0.7895154684417436 0.1289111178903929 0  0.600799783427331 0.2916355696893704 0  0.84375 0.03418030363172077 0  0.1917755503464407 0.2491670256216106 0  0.7083333333333333 0.3333333333333333 0  0.6478078564061464 0.1369553479973995 0  0.03144377545163998 0.71875 0  0.5384938547867213 0.1863839274804893 0  0.1306476667572267 0.952317581765362 0  0.2892367660002514 0.83086877593361 0  0.2481080288456043 0.865149100485581 0  0.03366228070175439 0.8414367919466372 0  0.7708333333333333 0.2927142374723782 0  0.2495866311601397 0.7559396780718943 0  0.2937576828079838 0.6041666666666666 0  0.3821593549415586 0.1894814149447491 0  0.3445642076128221 0.2302669507453929 0  0 0.78125 0  0.9599981637499104 0.1031385892720535 0  0.7574153542120744 0.04322853446886453 0  0.204050893649534 0.8206805424098645 0  0.2913165163454587 0.4163901636011871 0  0.2916638078313682 0.9166638078313682 0  0.3333333333333333 0.7083333333333333 0  0.3333333333333333 0.9583333333333333 0  0.3333333333333333 0.875 0  0.875 0.3333333333333333 0  0.4583333333333333 0.3333333333333333 0  0.3333333333333333 0.4583333333333333 0  0.9583333333333333 0.3333333333333333 0  1 0.2083333333333333 0  0.04166666666666666 1 0  1 0.04166666666666666 0  1 0.125 0  0.2916666666666666 1 0  0.3333333333333333 0.375 0  1 0.2916666666666666 0  0.5416666666666666 0.3333333333333333 0  0.3333333333333333 0.7916666666666666 0  0.3333333333333333 0.5416666666666666 0  0.1016069174729423 0.7681284775865405 0  0.6875 0.2973545198413665 0  0.04114790012545506 0.3075231959253509 0  0.2587887510102507 0.1431391960771147 0  0.1193245108135817 0.5679554230146414 0  0.1825380957195719 0.3068227309779981 0  0.1661760896432419 0.4282623189518068 0  0.1070276360235576 0.637347074818211 0  0 0.65625 0  0.03997879087021122 0.6348742039918381 0  0 0.90625 0  0.2979556257795157 0.6441983605310423 0  0.1769907023833003 0.7450354670868354 0  0.854811597523172 0.2553331016660396 0  0.2978902581390474 0.5640107983913386 0  0.422190360774741 0.03677291521413537 0  0.11934455203393 0.2960881760558284 0  0.288741907148047 0.4986855138502997 0  0.1618938936523733 0.6611871845610839 0  0.2987993331180339 0.6898492748391704 0  0.1759603428125616 0.1655905128188335 0  0.3370542346566173 0.1307683920597218 0  0.03886648645263804 0.6798368859108999 0  0.582137712504897 0.2556718560956591 0  0.5811816160381472 0.03469077100194589 0  0.5279722974875536 0.08768410328535482 0  0.5719976896208205 0.108182244938876 0  0.5126558232993131 0.216186636111048 0  0.2544607546659688 0.945918033212819 0  0.9136179827478804 0.2946597939900734 0  0.96132646065674 0.2469513160812137 0  0.6417305609928732 0.08267582195367543 0  0.8333983588276207 0.1212699393091796 0  0.8033911384781 0.08892182866041928 0  0.07360238009281882 0.5582453860506698 0  0 0.15625 0 
[...]
<PointData  Scalars="f_62"> 
<DataArray  type="Float64"  Name="f_62"  format="ascii">1.6412780405353568e-02  3.6966187903526418e-02  2.3212197070903635e-03  -1.2800132342763127e-03  -2.7586580706985404e-05  1.1877085203987694e-06  2.4057775281604750e-02  1.5930499109722059e-02  2.9538892219767066e-02  1.0046927032112784e-02  2.4788875039541504e-02  1.4335996271550225e-02  1.5317748799281865e-02  7.0536023164592121e-03  9.3052123125759794e-05  4.5110100888586854e-03  2.5606181933932569e-02  5.8486569655696354e-03  1.2676420258396116e-02  2.6249326216498770e-02  6.3318929987883589e-03  5.3188898653501789e-03  1.4218257986178614e-02  5.3081661192218117e-03  1.1846042049915738e-03  1.0637565221446094e-03  5.4510264809682152e-03  3.9165134069584244e-03  4.5162152842129289e-03  2.4581081140543099e-02  2.1550076121898333e-02  1.8828031189206028e-02  1.1803700818423574e-02  2.2406845383899920e-02  2.2471620520550959e-03  5.1303929984673948e-03  6.9510256713459315e-03  1.1377222813847374e-02  1.1662125603829870e-02  5.0102393368673878e-03  1.7792221129398832e-02  6.9533180346086094e-03  6.0275428287110732e-03  2.8254452342109208e-02  7.5018607893352568e-03  1.0033198072899983e-02  1.1431993688635678e-02  3.9948592465049804e-03  7.3254496192458182e-03  1.2279453184859696e-02  1.4739492372003598e-02  7.4443284524204050e-03  5.7799433134055628e-03  8.7513634002414110e-03  9.0959642897105973e-03  1.1990410502730146e-02  1.1239143256026138e-02  1.2452050854619767e-02  6.5607893006103509e-03  1.1576286206928646e-02  9.1275697912977256e-03  8.1134440094888551e-03  3.9311347638706631e-03  8.8137627832434590e-03  1.4435393449667650e-02  5.7570026219029369e-03  1.3744434960772484e-02  2.4550307314477490e-02  6.9127439663056595e-03  5.0063988250262544e-04  -3.7532238867526047e-04  1.1085867257497892e-03  1.2483622858512069e-02  2.9596104811528412e-02  2.6806500662703420e-02  1.2196456967942261e-02  9.7815028600736027e-04  1.2800766259656537e-02  7.0093125353520641e-03  1.1608495260419066e-02  4.7971071467763230e-03  9.7980519291815549e-03  1.8712847928687330e-02  1.0145119828511110e-02  3.0424600326353496e-03  3.1699122072479801e-03  5.6960675393525834e-03  4.9698451880645072e-04  1.0030877743783558e-02  2.5234595874294191e-02  9.1343854479938938e-03  5.2374005866086095e-03  1.6714492390855953e-02  1.0791270749976375e-02  5.5726160869192147e-03  4.7892174273024215e-04  2.4867492974771421e-02  1.1552100986517357e-02  1.5396453996159602e-03  5.1154429617933459e-03  1.8392702127210277e-02  1.2001355052284958e-02  5.6949630628337624e-03  9.2008014605600690e-03  4.5131197543033658e-03  2.4571593626246020e-02  1.5879878163755246e-02  2.4532865085329328e-02  1.0686632017762288e-02  2.0396638672041518e-02  1.7518260787103813e-02  2.3870573551587719e-02  1.1702307304640556e-02  1.1239300445013808e-02  7.0340325971958752e-03  1.7113159906509075e-02  8.2452515927537509e-03  5.6254628174003604e-03  9.1587847135408251e-03  2.0856859877741846e-02  4.5690858202485198e-03  1.3959979806316147e-02  6.6683502683510601e-03  3.4913726930826438e-03  2.1074475382547152e-02  4.7730284019608261e-03  6.9782320077886682e-03  7.5769018542773490e-03  5.3180029485584345e-03  8.0265997937933719e-03  4.6574421951991098e-03  6.2957677929050436e-03  9.9151628760535526e-03  4.4945349083330604e-03  1.2289687084936255e-02  1.9172382989989290e-02  9.2163651830707276e-03  1.1747882829107043e-02  5.1044752082453843e-03  7.7338578553199462e-03  2.0283190327406803e-02  1.0360027118898803e-02  6.1148065032770255e-03  9.0854574797894754e-03  4.8022645057220230e-03  6.3086431605160649e-03  1.6526323175976251e-03  1.1698609957893295e-02  7.8387129544702401e-03  1.5964383866405425e-02  4.2639157596963301e-05  3.1892034802215113e-03  4.4906695815350511e-03  -2.2438148507233563e-04  1.0010402012295650e-02  4.8039233471125686e-03  1.4918056847129889e-03  1.8567009730828355e-02  8.7546402449862094e-03  3.0083271263434509e-02  1.1790343688505754e-02  9.7289743019736297e-03  2.3450787750912146e-02  6.2518830286578415e-03  1.8316020899257503e-03  5.7732040354956781e-03  1.6075047141874105e-02  1.2439323970430958e-02  5.4938087029522704e-03  1.1919576869436781e-02  4.9115504894235735e-03  5.5446317450213245e-03  6.0045510559819763e-03  1.0112420517650423e-02  1.3936462737956651e-02  6.2839773303589403e-03  1.2959563128895582e-02  2.0778753046924473e-03  1.7840273982301490e-02  5.3772538616089051e-03  1.2428431037463614e-02  1.0333225869554340e-02  3.7799406067428687e-04  8.2824503921574248e-03  4.7854688474361111e-03  1.2245784919839199e-02  9.7649701179778579e-03  1.3125940554237958e-02  7.3657816069301815e-03  1.6910872312749552e-02  4.8374951496189447e-03  4.2317840954835782e-03  7.8959759347000443e-03  9.0506524776875902e-03  5.4937704467914617e-03  2.1473844511108254e-03  3.0583950559129650e-03  7.3611056497243045e-03  9.7114745547962362e-03  1.0905901649305440e-02  8.1642938108993975e-03  5.7341695613026778e-03  1.2467915882774428e-02  1.8467769303457355e-02  1.5349325482522871e-02  6.5627547756777118e-03  5.5471637770045275e-03  9.1622230093944754e-03  3.6537394572849899e-03  1.2097586554569184e-02  9.1889800789032063e-03  5.2476967998572452e-03  1.9476426706731768e-02  5.0244854142378467e-03  2.5017052449179127e-03  2.0880733264228180e-02  1.4047830657636845e-02  1.9346472464412519e-02  5.6448311450837769e-03  1.4978339446188069e-02  2.1101353456417060e-02  5.2491486470080525e-03  7.1027300800973730e-03  2.4275900551575871e-02  2.7032007720636797e-03  5.9225197384354762e-03  7.5872969344630619e-03  2.1750629654169715e-02  1.9227110286500045e-02  2.7143504641516158e-02  1.8498261744205921e-02  2.5588564750287441e-02  6.0838791450555920e-03  1.4934823069558142e-02  2.6060486982570654e-02  8.5337465245567210e-03  7.4605316705172800e-03  1.4085137827746653e-03  2.1897230720257762e-04  2.5489701916509319e-03  1.4699328337833691e-03  3.3602818756140379e-02  1.7831201968809628e-02  1.2705188639647131e-02  2.7075258117276780e-02  2.7373389609720841e-02  8.4411303161899646e-03  7.6433057507955581e-03  1.5159174584392986e-02  1.0816290463953512e-02  4.6023994696663692e-03  9.5247182498112044e-03  1.9993500670519504e-03  7.2311993306768416e-03  2.3673950148788366e-02  1.8483874381199698e-02  2.0918617100918486e-02  2.1945829778430560e-02  4.3343473899549083e-03  3.2137831063806677e-03  2.1660884182213857e-02  1.3821853320524345e-02  1.1308750804286706e-02  2.0414218187730804e-02  1.8907230051310555e-03  2.2058824790471315e-02  1.2645021031674681e-02  8.4744985121624084e-03  1.8650631480600258e-02  7.7887057400551941e-03  1.0640270240838018e-02  7.8513102531922053e-03  6.2968252805572110e-03  6.5696422229425374e-03  1.2237177102031770e-02  3.1054578146466750e-03  8.5755697780244607e-03  7.0556696570855879e-03  5.5099023583781055e-03  5.3730791955478906e-03  1.2660601356647037e-02  6.5807415134397067e-03  2.3362612879619807e-03  9.1117768569375576e-03  8.8678675878797169e-03  1.5066108959108538e-04  1.9703298292858731e-02  5.1943384637022656e-03  2.1791291250617337e-03  1.2953570969176384e-02  1.8673997774738726e-02  1.1679142412530257e-03  6.3577445040624648e-03  8.4510982893594971e-03  4.5242387596307809e-03  6.3427354940302763e-03  1.1621529640371999e-02  7.8050886271748120e-03  1.8243895285963284e-02  1.3742203085938600e-02  6.8453493748657423e-03  5.6630470049023633e-03  2.0538201772133612e-03  5.0827492415768550e-03  3.2320520153527790e-03  5.9031472627716700e-03  1.1769100911083442e-02  6.9992258445684789e-03  1.5474384854647522e-02  1.2990321796906894e-02  1.1040697161553268e-02  1.2079810862385208e-02  1.7917153165968824e-02  5.2745072437523442e-03  1.0391059267708818e-02  1.6108485064103663e-03  1.7342793932928782e-02  1.1718111101142820e-02  4.9462051630963589e-03  1.1670204006485082e-02  5.9676136028553040e-03  9.8067100971998018e-03  5.3952794389766721e-03  8.1352365711202627e-03  8.3646804601834844e-03  8.8253499234096418e-03  1.0764250317467958e-02  1.0576098041516643e-02  8.3328903741078826e-03  8.5129872659480688e-03  1.4203650208413897e-02  4.1577050248602478e-03  1.4293005424199270e-02  1.4633831061712402e-02  1.3881594309063152e-02  2.4402065604983897e-02  1.5768773524943928e-02  1.5403723387567677e-02  1.0418935285413962e-02  5.2443522120653643e-03  5.3420744638248635e-03  7.7311113860768360e-03  2.7057716650687085e-03  5.1945575282825122e-03  9.8361810546906576e-03  1.3365121621595380e-02  1.0675046719336402e-02  8.2682667026697521e-03  1.1104825975537407e-02  7.1014178776829910e-03  5.2761912749089051e-03  1.7545678923930918e-03  4.9237849305125668e-03  5.1237402484634008e-03  1.2863473512202813e-02  1.0061948058512887e-02  9.7395661438042670e-03  4.7753500445931150e-03  4.7847416265426176e-03  6.3792029045225372e-03  5.4591184029088857e-03  5.5749393932756309e-03  5.3539507367536873e-03  1.0281763318919385e-02  1.4569099640608608e-02  1.1726568411549124e-04  2.2220711290438542e-04  1.0267727908120028e-02  1.5289580538206417e-02  5.5557383352159255e-03  8.3994292854953235e-03  4.6939935318301949e-03  1.2128834464523224e-02  5.5274344299886188e-03  1.3324233799530603e-02  2.8046025856948528e-02  1.3598733190335579e-02  3.4874049233234541e-03  5.9572847879914605e-03  5.5317444725642905e-03  2.3151489059518957e-02  2.5146447238416172e-03  2.3978131789881654e-03  1.0285774230379883e-02  6.3957632101722048e-03  5.1201957682753063e-03  1.6017552015550017e-02  1.9342741500522766e-02  5.8585224523276733e-03  4.8656053434944675e-03  1.8665082043114026e-02  1.1526574159030792e-02  1.1551548006198743e-02  1.0654281126615327e-02  1.2519763147223053e-02  1.7620439462286510e-03  8.7101432516285271e-03  3.7475641820935704e-03  1.6788939777530446e-02  1.8152799870972361e-02  2.4739028976323449e-02  2.4660685002561484e-02  3.6835219183372560e-03  2.4909102187996395e-02  2.3407128804090148e-02  2.2060980577196625e-02  2.6440059015701151e-02  1.1763904359400681e-02  1.0763437278878917e-02  1.8193806746978967e-03  1.4937096174248104e-02  1.2056125968278875e-02  2.2482266471884737e-03  8.1872094029837982e-03  3.1319912076936251e-03  5.4587524165135006e-03  6.6918550956114424e-03  2.9436911342829585e-03  1.4471347524426300e-02  1.3666187882538507e-02  6.8290084506756818e-03  7.5454548979847456e-03  1.0735504576785649e-02  1.3543946293209154e-02  1.8880117187560115e-02  1.1395818020001879e-02  1.1713328881812210e-02  1.1067447805251984e-02  9.7957498893188610e-03  8.3271798424764190e-03  1.1236265063526655e-02  1.3217808914258247e-02  5.1387250189156332e-03  6.4089535405382316e-03  1.0864283514646208e-02  7.0417270639940169e-03  2.4205181631829244e-02  8.4636173756271458e-04  1.1449142928962281e-02  4.2675191055968256e-03  5.5298778636144212e-03  4.0608290024386077e-03  1.2062393385944862e-02  7.7933679764841824e-03  4.3513909719139973e-03  1.1815453394663243e-02  2.3463553870015925e-02  6.3218636521462481e-03  5.1115767002062190e-03  3.1638985882506518e-03  1.7921602962224906e-02  2.3859096186446632e-02  1.0904603193122444e-02  6.3523251796370585e-03  1.0236455252470886e-02  1.4457954477263547e-02  8.2838498402086520e-03  1.0536157523192027e-02  4.8672498583392874e-03  2.4287661987853711e-02  1.1554887045288637e-02  2.4202395962973546e-02  2.3500270635750980e-02  -4.6238044690559629e-03  1.1094311542748382e-02  -2.5924217844899792e-03  2.3518013763080568e-02  1.0517466717545779e-02  1.1420099260471260e-02  1.0768572752547438e-02  2.9498551568328491e-03  4.6234404250046776e-03  6.0408849182641564e-03  8.8497727747228697e-03  5.7840813453616689e-03  1.2975756997152558e-02  4.9951182336705584e-03  2.4928949370178633e-02  3.8425085428122534e-04  1.0928009665264768e-02  6.7772386790609070e-03  1.7734360799194486e-02  2.3350211736441494e-02  5.4241346089995779e-03  7.5633139484085161e-03  5.5164410589673410e-03  1.2980732558914640e-02  1.9753923188561184e-02  2.1699306464698434e-03  1.1360353098723011e-02  1.4371546321742179e-02  5.2608113366252596e-03  9.4605544758130950e-03  1.1269440575162968e-03  3.8712778341322364e-04  1.5170610804247993e-03  6.9931008125988193e-03  1.8542846841380051e-02  8.9554822117085646e-03  9.6979578283911405e-03  5.6506453112431963e-03  1.9176556054897938e-02  5.3755588471992681e-03  3.2497970456515342e-03  2.9047839630221999e-03  2.1282447217847722e-04  -1.8429503670906833e-04  4.4540511560570003e-03  5.1108599804643232e-03  4.3029701222209085e-03  6.2189097560573078e-03  4.4723114123492542e-03  1.4890909843490278e-02  1.1248243921105244e-02  1.2961388155511061e-02  6.7864784949408889e-03  1.3079259150100107e-02  2.4090561081040718e-03  1.9139063105634509e-02  5.3569679623390884e-03  6.4189050235593653e-03  1.8581159997096017e-02  5.2108061165122453e-03  1.2941356025940813e-02  7.5633674954162042e-03  8.9528750973228433e-03  2.6071585476590692e-03  4.3123712546769806e-03  1.8714581615171831e-02  7.4903050759274649e-03  8.6307857009245807e-03  8.1667059252537658e-03  7.3145401041778933e-03  1.7414673390625808e-02  1.0095467587584514e-02  1.1253825919906865e-02  4.2086481007552624e-03  1.0605014222941042e-02  4.0936361106569683e-03  6.1947998042042162e-03  4.2027573947917550e-04  5.0517250846130457e-03  5.1551708769293639e-03  1.1023374562903839e-02  1.1655607198543701e-02  8.1848616894639268e-03  1.2031485887474580e-02  4.3699051237015632e-03  1.4668560376513814e-02  2.0813122955122701e-03  3.5804194111796524e-03  6.2747843698213422e-03  1.2114792371315300e-03  3.5741514219030158e-03  1.2400648168259731e-02  5.7459653773963386e-03  2.6055504652504188e-03  8.6778525914930245e-03  6.5798809746274740e-03  1.8919502902908281e-02  1.2857100864558237e-02  1.0651918577811047e-02  1.2970770939211585e-02  3.4445113371841629e-04  4.4127430564510489e-03  9.3400628348990437e-03  1.7708756963952611e-02  5.6445458855700469e-03  1.2335875579052833e-02  5.3976285821638369e-03  1.2419888815809540e-02  6.4264083270814286e-03  1.0992798418254436e-02  5.0398146282536636e-03  5.4924843773354326e-03  1.0644583603318764e-02  1.3402975877028512e-02  1.4300933049355314e-03  7.5697421792432478e-03  1.4624834575622232e-02  1.5839151575424983e-03  4.8195345529514540e-03  7.6540913161715126e-03  5.3752089247259688e-03  1.1315923540164311e-02  1.0342162090299785e-02  1.2563136649835332e-02  1.0216703834687244e-02  5.6549109900821612e-03  4.8737174416907400e-03  4.3794161735862423e-03  4.8407524848182084e-03  5.0971043486939746e-03  5.6118446173987757e-03  9.7775321613742718e-03  -2.5328611828399216e-03  -1.5493383908970031e-03  5.0489169386826703e-03  4.1590250027329391e-03  6.1197955804087384e-03  1.2277186907555292e-02  5.4401854186302261e-03  1.0008697132064025e-02  1.2287540115971487e-02  3.9666180443998873e-03  1.2154193777849494e-02  1.5621078968119418e-02  9.8700686170638541e-03  1.5563622239366014e-02  7.9957451210153491e-03  1.2101525468928497e-02  -1.0719288992900671e-03  9.0961018133753398e-03  7.8592853136451105e-03  1.0935438139154563e-02  1.7101516299477575e-02  1.7864357783036359e-02  -2.7078630892710560e-04  9.7552312373155071e-03  7.5647266019189460e-03  2.6026043265003737e-03  7.6092843670279801e-03  4.1272695853410181e-03  1.5468549408237666e-02  1.1044557064006191e-02  2.1630325375051685e-03  5.9656446852570958e-03  3.3162107512339201e-03  5.5478852197694542e-03  6.7687710974041679e-03  6.0011781154293408e-03  1.0048837926747121e-03  9.5926344052609230e-03  1.1803175940928539e-02  5.6052331690438278e-03  1.3929842623687728e-02  5.0993123756350638e-03  1.4366870260249116e-02  2.0670948372229037e-02  6.6499582113709356e-03  6.1219692071851706e-03  2.2415347549975899e-03  1.2040694596767080e-02  1.1633985797124458e-02  1.1973431890723802e-02  1.2719973409136916e-02  1.5318162402765434e-02  3.8004184157572687e-03  1.2312969317137299e-02  1.2380069772868891e-02  2.0637402527120818e-02  1.5254240313626493e-02  1.2437130984847196e-02  9.3455242930964649e-04  7.4510725444843174e-03  7.8213002053131018e-04  5.2862598357080208e-03  2.3834194349785145e-02  4.0568024412960925e-03  5.4012622214328794e-03  7.0185182464660737e-03  1.0335758619350944e-03  4.4181583315574275e-03  8.9644861111975085e-03  8.8240307817137754e-03  1.1511737485813030e-02  9.6790927895999274e-03  1.1443338716241508e-02  8.9776767456455266e-03  4.1363301470442402e-03  9.4255461983814848e-03  1.1875712740689970e-02  1.1458580173194503e-02  3.3581798551070140e-03  4.9825691045874664e-03  2.7208763060957369e-04  1.1166812028147037e-02  1.2701129360590041e-02  1.9855936294844039e-02  2.9776786841599693e-04  3.4317611067524968e-03  1.0001819482825731e-02  1.8728219791603707e-02  4.3156255529464109e-03  4.5061571009333548e-03  4.8416001576114601e-03  1.0740173686708982e-02  7.6132560382483625e-03  1.4243566729173800e-02  1.1282503467932263e-02  1.0026013213031339e-02  6.2645753085950493e-03  6.7968397045709440e-03  8.6045986094395004e-03  5.6436054394934940e-03  5.7389365291550384e-03  6.2921422546674023e-03  7.5563968583285367e-03  1.0633003992585249e-02  1.2119822665803781e-02  1.5654276731928752e-02  1.6655590864076711e-02  7.6230821515985616e-03  8.8700359278047272e-03  1.9499446963203701e-02  5.8689410951544242e-03  4.4434714937134140e-03  1.0562667222184888e-02  9.5933520284621644e-03  1.1454919523778194e-02  4.1990251257782597e-03  1.6581001858770691e-02  7.6758556475082299e-03  8.7920957648638318e-03  4.9531451980621179e-03  4.6374948779629582e-03  1.2621619912956253e-02  1.7285535042568790e-02  2.0300189676491165e-02  1.2600010570229934e-02  4.6653654359971944e-03  1.1125063580878327e-02  1.1364756716629286e-02  1.4125931753157213e-02  6.2089011061801031e-03  2.1166883536387082e-02  5.7711500772598904e-03  5.4593711504315676e-03  5.5250434245315526e-03  2.1477937044566006e-02  1.0464567712066476e-02  4.4060523036293315e-03  4.9957243203917583e-03  1.4375206679411624e-02  8.0591824996202113e-03  9.0723124963565382e-03  2.4357515851362140e-02  6.2984564501959977e-03  4.1745757061373030e-03  1.6710741993816677e-03  4.9066744733729170e-03  3.6379129453775003e-03  9.7367014093828856e-03  2.1451429397922609e-02  1.9912142515980225e-02  1.6392826578051845e-02  1.8429334995447692e-02  5.5338441547024518e-03  2.6321944255628015e-02  7.7644200939700413e-04  1.9502275074006602e-02  5.0336648636161406e-03  8.7302261947979076e-03  4.3878044045606813e-03  1.2386286653928541e-02  1.1421469317392772e-02  1.8554658715860040e-02  1.1435740786923982e-02  5.6681855674350218e-03  8.0481446084676520e-04  5.9097470849483252e-03  9.6386705331637408e-03  6.1349339836405774e-03  2.4354072516009618e-02  2.5729530261556173e-02  2.4026876613780303e-02  1.9884770170052427e-02  2.3938258498082999e-02  1.3644040623919376e-02  7.5951837893755416e-03  9.7609299038642697e-03  1.4840794753944796e-02  5.5803993643015653e-03  1.3732338558703202e-02  1.0627858699171086e-02  1.7110300540851536e-02  1.6733011661696513e-02  1.0335128207882825e-02  1.5605215490082149e-02  6.9444184133222184e-03  6.8374246386354535e-03  8.0376736488449625e-03  2.1444851951284958e-02  5.1922272979790969e-03  5.3960930133323381e-03  4.1493241016696191e-03  7.8465457774783715e-03  2.1217885445681380e-02  7.5572335678634750e-03  1.4482768824443880e-02  2.6088883049299313e-03  6.3986554284552579e-03  8.8051711360194601e-03  1.1314505261092506e-02  7.1492727700305922e-03  7.7685164051167158e-03  1.1395908665244255e-02  2.1890622906593723e-03  2.0951993896021114e-02  2.5420437626662157e-03  1.2011396067540850e-02  2.1105890652871450e-03  5.4406158390358939e-03  2.1526760872070567e-02  5.2705578403654642e-03  1.5756502962016087e-02  2.5295944769032803e-02  1.6373755749326969e-03  2.1758643010386002e-02  -4.6811331092673795e-05  1.0429166295219392e-02  7.3508936754627177e-03  2.1480980220817399e-02  1.7012811254786459e-02  1.2921539517018906e-02  8.3471337580622255e-03  6.6386598652162579e-03  9.7904887854461282e-03  5.8365993976925235e-03  3.3986266049700536e-02  6.3075639803400144e-03  2.0268240770956604e-02  6.2749518656144811e-03  -2.9244368841202383e-03  3.4566915107444337e-03  2.4773277822187193e-02  8.7714904970779359e-03  5.7121473343160383e-03  1.5591724179125367e-02  2.2035