<?xml version="1.0"?>
<VTKFile type="UnstructuredGrid"  version="0.1"  >
<UnstructuredGrid>
<Piece  NumberOfPoints="24445" NumberOfCells="46366">
<Points>
<DataArray  type="Float64"  NumberOfComponents="3"  format="ascii">0 1 0  0 0.9966666666666667 0  0.003333333333333334 1 0  0.003333333333333334 0.9966666666666667 0  0.006666666666666667 1 0  0.006666666666666667 0.9966666666666667 0  0.01 1 0  0.01 0.9966666666666667 0  0.01333333333333333 1 0  0.01333333333333333 0.9966666666666667 0  0.01666666666666667 1 0  0.01666666666666667 0.9966666666666667 0  0.02 1 0  0.02 0.9966666666666667 0  0.02333333333333333 1 0  0.02333333333333333 0.9966666666666667 0  0.02666666666666667 1 0  0.02666666666666667 0.9966666666666667 0  0.03 1 0  0.03 0.9966666666666667 0  0.03333333333333333 1 0  0.03333333333333333 0.9966666666666667 0  0.03666666666666667 1 0  0.03666666666666667 0.9966666666666667 0  0.04 1 0  0.04 0.9966666666666667 0  0.04333333333333333 1 0  0.04333333333333333 0.9966666666666667 0  0.04666666666666667 1 0  0.04666666666666667 0.9966666666666667 0  0.05 1 0  0.05 0.9966666666666667 0  0.2666666666666667 1 0  0.2666666666666667 0.9966666666666667 0  0.27 1 0  0.27 0.9966666666666667 0  0.2733333333333333 1 0  0.2733333333333333 0.9966666666666667 0  0.2766666666666667 1 0  0.2766666666666667 0.9966666666666667 0  0.28 1 0  0.28 0.9966666666666667 0  0.2833333333333333 1 0  0.2833333333333333 0.9966666666666667 0  0.2866666666666667 1 0  0.2866666666666667 0.9966666666666667 0  0.29 1 0  0.29 0.9966666666666667 0  0.2933333333333333 1 0  0.2933333333333333 0.9966666666666667 0  0.2966666666666667 1 0  0.2966666666666667 0.9966666666666667 0  0.3 1 0  0.3 0.9966666666666667 0  0.3033333333333333 1 0  0.3033333333333333 0.9966666666666667 0  0.3066666666666666 1 0  0.3066666666666666 0.9966666666666667 0  0.31 1 0  0.31 0.9966666666666667 0  0.3133333333333334 1 0  0.3133333333333334 0.9966666666666667 0  0.3166666666666667 1 0  0.3166666666666667 0.9966666666666667 0  0.32 1 0  0.32 0.9966666666666667 0  0.3233333333333333 1 0  0.3233333333333333 0.9966666666666667 0  0.3266666666666667 1 0  0.3266666666666667 0.9966666666666667 0  0.33 1 0  0.33 0.9966666666666667 0  0.3333333333333333 1 0  0.3333333333333333 0.9966666666666667 0  0 0.9933333333333333 0  0.003333333333333334 0.9933333333333333 0  0.006666666666666667 0.9933333333333333 0  0.01 0.9933333333333333 0  0.01333333333333333 0.9933333333333333 0  0.01666666666666667 0.9933333333333333 0  0.02 0.9933333333333333 0  0.02333333333333333 0.9933333333333333 0  0.02666666666666667 0.9933333333333333 0  0.03 0.9933333333333333 0  0.03333333333333333 0.9933333333333333 0  0.03666666666666667 0.9933333333333333 0  0.04 0.9933333333333333 0  0.04333333333333333 0.9933333333333333 0  0.04666666666666667 0.9933333333333333 0  0.05 0.9933333333333333 0  0.2666666666666667 0.9933333333333333 0  0.27 0.9933333333333333 0  0.2733333333333333 0.9933333333333333 0  0.2766666666666667 0.9933333333333333 0  0.28 0.9933333333333333 0  0.2833333333333333 0.9933333333333333 0  0.2866666666666667 0.9933333333333333 0  0.29 0.9933333333333333 0  0.2933333333333333 0.9933333333333333 0  0.2966666666666667 0.9933333333333333 0  0.3 0.9933333333333333 0  0.3033333333333333 0.9933333333333333 0  0.3066666666666666 0.9933333333333333 0  0.31 0.9933333333333333 0  0.3133333333333334 0.9933333333333333 0  0.3166666666666667 0.9933333333333333 0  0.32 0.9933333333333333 0  0.3233333333333333 0.9933333333333333 0  0.3266666666666667 0.9933333333333333 0  0.33 0.9933333333333333 0  0.3333333333333333 0.9933333333333333 0  0 0.99 0  0.003333333333333334 0.99 0  0.006666666666666667 0.99 0  0.01 0.99 0  0.01333333333333333 0.99 0  0.01666666666666667 0.99 0  0.02 0.99 0  0.02333333333333333 0.99 0  0.02666666666666667 0.99 0  0.03 0.99 0  0.03333333333333333 0.99 0  0.03666666666666667 0.99 0  0.04 0.99 0  0.04333333333333333 0.99 0  0.04666666666666667 0.99 0  0.05 0.99 0  0.2666666666666667 0.99 0  0.27 0.99 0  0.2733333333333333 0.99 0  0.2766666666666667 0.99 0  0.28 0.99 0  0.2833333333333333 0.99 0  0.2866666666666667 0.99 0  0.29 0.99 0  0.2933333333333333 0.99 0  0.2966666666666667 0.99 0  0.3 0.99 0  0.3033333333333333 0.99 0  0.3066666666666666 0.99 0  0.31 0.99 0  0.3133333333333334 0.99 0  0.3166666666666667 0.99 0  0.32 0.99 0  0.3233333333333333 0.99 0  0.3266666666666667 0.99 0  0.33 0.99 0  0.3333333333333333 0.99 0  0 0.9866666666666667 0  0.003333333333333334 0.9866666666666667 0  0.006666666666666667 0.9866666666666667 0  0.01 0.9866666666666667 0  0.01333333333333333 0.9866666666666667 0  0.01666666666666667 0.9866666666666667 0  0.02 0.9866666666666667 0  0.02333333333333333 0.9866666666666667 0  0.02666666666666667 0.9866666666666667 0  0.03 0.9866666666666667 0  0.03333333333333333 0.9866666666666667 0  0.03666666666666667 0.9866666666666667 0  0.04 0.9866666666666667 0  0.04333333333333333 0.9866666666666667 0  0.04666666666666667 0.9866666666666667 0  0.27 0.9866666666666667 0  0.2733333333333333 0.9866666666666667 0  0.2766666666666667 0.9866666666666667 0  0.28 0.9866666666666667 0  0.2833333333333333 0.9866666666666667 0  0.2866666666666667 0.9866666666666667 0  0.29 0.9866666666666667 0  0.2933333333333333 0.9866666666666667 0  0.2966666666666667 0.9866666666666667 0  0.3 0.9866666666666667 0  0.3033333333333333 0.9866666666666667 0  0.3066666666666666 0.9866666666666667 0  0.31 0.9866666666666667 0  0.3133333333333334 0.9866666666666667 0  0.3166666666666667 0.9866666666666667 0  0.32 0.9866666666666667 0  0.3233333333333333 0.9866666666666667 0  0.3266666666666667 0.9866666666666667 0  0.33 0.9866666666666667 0  0.3333333333333333 0.9866666666666667 0  0 0.9833333333333333 0  0.003333333333333334 0.9833333333333333 0  0.006666666666666667 0.9833333333333333 0  0.01 0.9833333333333333 0  0.01333333333333333 0.9833333333333333 0  0.01666666666666667 0.9833333333333333 0  0.02 0.9833333333333333 0  0.02333333333333333 0.9833333333333333 0  0.02666666666666667 0.9833333333333333 0  0.03 0.9833333333333333 0  0.03333333333333333 0.9833333333333333 0  0.03666666666666667 0.9833333333333333 0  0.04 0.9833333333333333 0  0.04333333333333333 0.9833333333333333 0  0.04666666666666667 0.9833333333333333 0  0.27 0.9833333333333333 0  0.2733333333333333 0.9833333333333333 0  0.2766666666666667 0.9833333333333333 0  0.28 0.9833333333333333 0  0.2833333333333333 0.9833333333333333 0  0.2866666666666667 0.9833333333333333 0  0.29 0.9833333333333333 0  0.2933333333333333 0.9833333333333333 0  0.2966666666666667 0.9833333333333333 0  0.3 0.9833333333333333 0  0.3033333333333333 0.9833333333333333 0  0.3066666666666666 0.9833333333333333 0  0.31 0.9833333333333333 0  0.3133333333333334 0.9833333333333333 0  0.3166666666666667 0.9833333333333333 0  0.32 0.9833333333333333 0  0.3233333333333333 0.9833333333333333 0  0.3266666666666667 0.9833333333333333 0  0.33 0.9833333333333333 0  0.3333333333333333 0.9833333333333333 0  0 0.98 0  0.003333333333333334 0.98 0  0.006666666666666667 0.98 0  0.01 0.98 0  0.01333333333333333 0.98 0  0.01666666666666667 0.98 0  0.02 0.98 0  0.02333333333333333 0.98 0  0.02666666666666667 0.98 0  0.03 0.98 0  0.03333333333333333 0.98 0  0.03666666666666667 0.98 0  0.04 0.98 0  0.04333333333333333 0.98 0  0.04666666666666667 0.98 0  0.27 0.98 0  0.2733333333333333 0.98 0  0.2766666666666667 0.98 0  0.28 0.98 0  0.2833333333333333 0.98 0  0.2866666666666667 0.98 0  0.29 0.98 0  0.2933333333333333 0.98 0  0.2966666666666667 0.98 0  0.3 0.98 0  0.3033333333333333 0.98 0  0.3066666666666666 0.98 0  0.31 0.98 0  0.3133333333333334 0.98 0  0.3166666666666667 0.98 0  0.32 0.98 0  0.3233333333333333 0.98 0  0.3266666666666667 0.98 0  0.33 0.98 0  0.3333333333333333 0.98 0  0 0.9766666666666667 0  0.003333333333333334 0.9766666666666667 0  0.006666666666666667 0.9766666666666667 0  0.01 0.9766666666666667 0  0.01333333333333333 0.9766666666666667 0  0.01666666666666667 0.9766666666666667 0  0.02 0.9766666666666667 0  0.02333333333333333 0.9766666666666667 0  0.02666666666666667 0.9766666666666667 0  0.03 0.9766666666666667 0  0.03333333333333333 0.9766666666666667 0  0.03666666666666667 0.9766666666666667 0  0.04 0.9766666666666667 0  0.04333333333333333 0.9766666666666667 0  0.04666666666666667 0.9766666666666667 0  0.27 0.9766666666666667 0  0.2733333333333333 0.9766666666666667 0  0.2766666666666667 0.9766666666666667 0  0.28 0.9766666666666667 0  0.2833333333333333 0.9766666666666667 0  0.2866666666666667 0.9766666666666667 0  0.29 0.9766666666666667 0  0.2933333333333333 0.9766666666666667 0  0.2966666666666667 0.9766666666666667 0  0.3 0.9766666666666667 0  0.3033333333333333 0.9766666666666667 0  0.3066666666666666 0.9766666666666667 0  0.31 0.9766666666666667 0  0.3133333333333334 0.9766666666666667 0  0.3166666666666667 0.9766666666666667 0  0.32 0.9766666666666667 0  0.3233333333333333 0.9766666666666667 0  0.3266666666666667 0.9766666666666667 0  0.33 0.9766666666666667 0  0.3333333333333333 0.9766666666666667 0  0 0.9733333333333334 0  0.003333333333333334 0.9733333333333334 0  0.006666666666666667 0.9733333333333334 0  0.01 0.9733333333333334 0  0.01333333333333333 0.9733333333333334 0  0.01666666666666667 0.9733333333333334 0  0.02 0.9733333333333334 0  0.02333333333333333 0.9733333333333334 0  0.02666666666666667 0.9733333333333334 0  0.03 0.9733333333333334 0  0.03333333333333333 0.9733333333333334 0  0.03666666666666667 0.9733333333333334 0  0.04 0.9733333333333334 0  0.04333333333333333 0.9733333333333334 0  0.04666666666666667 0.9733333333333334 0  0.27 0.9733333333333334 0  0.2733333333333333 0.9733333333333334 0  0.2766666666666667 0.9733333333333334 0  0.28 0.9733333333333334 0  0.2833333333333333 0.9733333333333334 0  0.2866666666666667 0.9733333333333334 0  0.29 0.9733333333333334 0  0.2933333333333333 0.9733333333333334 0  0.2966666666666667 0.9733333333333334 0  0.3 0.9733333333333334 0  0.3033333333333333 0.973333333333333
[...]
<PointData  Scalars="f_103"> 
<DataArray  type="Float64"  Name="f_103"  format="ascii">-1.7260205226759533e-17  4.4125911329026685e-17  -9.0992387258565122e-18  1.7007074151934003e-17  -1.2849568946240654e-17  2.5345529112135645e-17  -1.1351858026124891e-17  2.3428726102577028e-17  -1.2108865906446022e-17  2.3106065402140989e-17  -1.5525451809751961e-17  2.6659187235135520e-17  -1.8311365961197332e-17  3.5127284127942033e-17  -1.3444556498462618e-17  3.4291817909757266e-17  -3.4379442487741298e-18  1.6916506690616348e-17  2.1571279461347274e-18  -9.5895966813000349e-19  1.2955612520061622e-18  -4.4412326718901976e-18  -3.4486736803659183e-19  -3.5158137317735817e-19  -2.3842948102703459e-19  8.5761759179757022e-19  6.3964880412625211e-20  -1.8779049044824798e-21  -3.2075613699101659e-21  -6.9198215134920813e-20  -2.9087265112285668e-20  6.1382091594481519e-20  -3.2770860363932067e-17  7.1634409484352096e-17  -1.6633602302538221e-17  3.8041317136957233e-17  -2.0007537911906603e-17  3.8248688908577005e-17  -1.8996687125762971e-17  3.9589069541293285e-17  -1.7995973251525185e-17  3.6402747417711536e-17  -1.7686027892529336e-17  3.5926529846010359e-17  -1.7430525788175947e-17  3.4844803351426524e-17  -1.7150386641279490e-17  3.4864981280005894e-17  -1.4968028388849361e-17  3.2785455732345120e-17  -1.2888676899470563e-17  2.7138161204578003e-17  -1.6290234661604272e-17  2.7157001019060635e-17  -2.2424739516243209e-17  3.9370411173608934e-17  -1.9869292386272180e-17  4.5983570899059124e-17  -7.5224136326278295e-18  2.8597882834192828e-17  1.8789152183792120e-18  2.9645466476371472e-18  2.1553766781010989e-18  -5.9177738255114117e-18  -2.4376134646227279e-19  -1.3659331447503563e-18  -4.3688731329127139e-19  1.2379725017322581e-18  1.0154712559286929e-19  1.4379654857625985e-19  6.6876278546213992e-20  -2.6343240798233908e-19  -5.2604192062317693e-20  3.8332105578421371e-20  -1.6749850038547832e-16  -5.7005455332893687e-17  -8.8148986067254576e-17  -8.2411181187970673e-17  -8.2411342969400240e-17  -8.2852238848584992e-17  -1.0770191637611044e-16  -1.3017597576548184e-16  -9.5862800051956913e-17  -2.2086597586130010e-17  1.6645897878823350e-17  7.8593499956839553e-18  -3.1169405604968117e-18  -1.0920088631430814e-18  4.8932151652174369e-19  -1.9439373144493672e-19  -1.4782996347219685e-16  -1.6264413367194666e-16  -1.2608240487625260e-16  -1.4439897503901013e-16  -1.2878265349736462e-16  -1.2815677001891734e-16  -1.2296795868222386e-16  -1.2177581887164856e-16  -1.2046341546269866e-16  -1.0613404638582387e-16  -8.8780672304727836e-17  -1.1149099462674453e-16  -1.5915707015517850e-16  -1.4241861734445720e-16  -5.0725091188493307e-17  1.5901200708237995e-17  1.3972536845462883e-17  -3.0087519848205509e-18  -2.5162977696452710e-18  1.0143185721362140e-18  2.1572381746403858e-19  6.5188025867328920e-16  2.1149787148817673e-16  3.2504936148096545e-16  3.0090858817936647e-16  3.1534457277040912e-16  2.9785211357783940e-16  3.3960932622191437e-16  4.5784391528574962e-16  4.5735755369752334e-16  2.1887349536546691e-16  -2.3094554698036694e-17  -5.7153392644438381e-17  1.2611493970747963e-18  1.0167116614745166e-17  -1.8431840788045714e-18  2.6473369430150508e-19  -2.8165790391611370e-16  7.1114577130442430e-16  4.2895567245441569e-16  5.5829185946853298e-16  4.8512929068929047e-16  4.8413055839383821e-16  4.6423139663554324e-16  4.5273761115094646e-16  4.5163889159251846e-16  4.3140102942880823e-16  3.5472371971665324e-16  3.4129019290065159e-16  5.0906610512706855e-16  6.1443194570254892e-16  3.7538046597462943e-16  2.3925068310727133e-17  -7.9626491039251140e-17  -9.8174717866833863e-18  1.6541705262807267e-17  -8.3125428255958468e-19  -2.8344473386704484e-18  -2.5741535349568260e-15  -7.9631262983689348e-16  -1.2251002635280497e-15  -1.0924479236251385e-15  -1.1828373724472094e-15  -1.1431682417750805e-15  -1.1336347568662934e-15  -1.4691630741040862e-15  -1.8369894053882564e-15  -1.3578345516306603e-15  -2.7172002192354068e-16  2.5400794709803877e-16  8.6240566195046045e-17  -5.1563595982988733e-17  -4.6481196001125930e-18  -4.2555454997336541e-15  -1.4056087300075273e-15  -2.1488363969437062e-15  -1.8445183430959349e-15  -1.8354981903658183e-15  -1.7617064238057494e-15  -1.7094253968511657e-15  -1.6781267807286881e-15  -1.6736059750713201e-15  -1.4945653509621906e-15  -1.2115534709766280e-15  -1.4997058443395404e-15  -2.2397648602441326e-15  -2.0296976975732235e-15  -6.6779840375488711e-16  2.6331790943540233e-16  1.7045970272236090e-16  -5.9433871086459155e-17  -2.3642584666675656e-17  1.6424831635405390e-17  1.0341928394207697e-14  3.0218689082667907e-15  4.6918825390778630e-15  4.0109323625831868e-15  4.3257348654824414e-15  4.3906523736511236e-15  4.1716325199644806e-15  4.6050458973125529e-15  6.3831034680586757e-15  6.5506291210221380e-15  3.0288565670104770e-15  -4.9048877160408074e-16  -7.6783150791316276e-16  1.0383600287521005e-16  1.1252486041596553e-16  1.6479923065918240e-14  5.5767108105970073e-15  8.1212220223663874e-15  7.0346759004761297e-15  6.9733475952510203e-15  6.6766064647621861e-15  6.4901937102597632e-15  6.2892228675949315e-15  6.2581926859560232e-15  6.0730953751396213e-15  4.9933314275357941e-15  4.5742466810082845e-15  7.0249504182217709e-15  8.8195442343259276e-15  5.2763928034350877e-15  9.7471872946599481e-17  -1.1243392057979494e-15  -1.2859086059205285e-17  2.1592096104614781e-16  -4.6766864575290154e-17  -4.2289584751122817e-14  -1.1615784947850424e-14  -1.8178773270242596e-14  -1.4983910341710133e-14  -1.5781753051196574e-14  -1.6298955581860528e-14  -1.6216320431271335e-14  -1.5532369960838332e-14  -2.0049843580090309e-14  -2.6098299767104813e-14  -1.9422611037078934e-14  -3.1811141408481329e-15  3.8807337862008170e-15  7.7265951671401726e-16  -7.7504585668013794e-16  -6.3029478373080144e-14  -2.1373968071945418e-14  -3.1026287650180554e-14  -2.6757986068140562e-14  -2.6551284212295013e-14  -2.5320067190988284e-14  -2.4605908288925005e-14  -2.3829951484334337e-14  -2.3266219939871899e-14  -2.3293521662799678e-14  -2.1228403375452032e-14  -1.6672808423972545e-14  -2.0079694192518982e-14  -3.1724328527562961e-14  -2.9224817542233266e-14  -8.6530592843221401e-15  4.3206549433248117e-15  1.9069898924178108e-15  -1.0324429629466668e-15  -1.2038039694260878e-16  1.7591902408694304e-13  4.5354062960644819e-14  7.1445207445345882e-14  5.6513376018325594e-14  5.8647797451713322e-14  5.8988919550971173e-14  6.2086500183526296e-14  5.8480463053184957e-14  6.2203242305929649e-14  8.8738339537184134e-14  9.4390181093533093e-14  4.1845413348860835e-14  -9.7552190483003031e-15  -9.8624087652532365e-15  2.7847592404864066e-15  2.4147307405118525e-13  8.1485904632634167e-14  1.1875703594578268e-13  1.0183471126242322e-13  1.0113487908605388e-13  9.6242855951117147e-14  9.3184785636020067e-14  9.0433882597829914e-14  8.7638537959118304e-14  8.6534839273696785e-14  8.5389625957467618e-14  7.0880697579341889e-14  6.0896672423919832e-14  9.6379432583499488e-14  1.2742655566408377e-13  7.4203800363439250e-14  -2.7551467349794167e-15  -1.5395846200213737e-14  1.8028931571858774e-15  2.4020932500319806e-15  -7.4576003311595888e-13  -1.7908632628793339e-13  -2.8649691330925121e-13  -2.1424721212370121e-13  -2.2176336527135866e-13  -2.1486005161531131e-13  -2.2772705469269815e-13  -2.2974605299948377e-13  -2.1367777741697205e-13  -2.7117826546804629e-13  -3.7169705180732591e-13  -2.7970687683573384e-13  -3.3396840124736828e-14  5.9245530185578338e-14  2.2459889108401418e-15  -9.3060519088930537e-13  -3.0908779215499710e-13  -4.5565429919274588e-13  -3.8780827665488155e-13  -3.8530763223317610e-13  -3.6626993921624915e-13  -3.5363550980924703e-13  -3.4222396707590428e-13  -3.3276679233295421e-13  -3.2293698586900649e-13  -3.2274047208699059e-13  -3.0249089547192883e-13  -2.3117837658604557e-13  -2.6470928550385580e-13  -4.5008651536481753e-13  -4.2410690549682421e-13  -1.0790942878636190e-13  6.9964759374010271e-14  1.7134926569323050e-14  -1.5833079491727694e-14  3.2336014859424116e-12  7.1160617062110763e-13  1.1738956464840866e-12  8.2162010137703130e-13  8.4416486648208866e-13  8.0036141541501158e-13  8.2065259723820340e-13  8.6924041579825685e-13  8.3007377107157839e-13  8.3223350653864391e-13  1.2292693336507850e-12  1.3686695988661923e-12  5.7842995963784953e-13  -1.8967776653983939e-13  -1.1502693554617570e-13  3.6280413626656328e-12  1.1661461464644730e-12  1.7516811178636809e-12  1.4788978055242048e-12  1.4683220386227671e-12  1.3946323802988879e-12  1.3445526620038270e-12  1.2963266615566202e-12  1.2598007748071601e-12  1.2238885115786019e-12  1.1950672908225199e-12  1.1948789578091671e-12  1.0177149401585899e-12  8.0477813032897464e-13  1.3074663696375802e-12  1.8580629253027392e-12  1.0429440958018279e-12  -1.1279403058931879e-13  -1.9806903050250603e-13  5.4720744247314998e-14  -1.4372985986442685e-11  -2.8530376186691324e-12  -4.8992501780802306e-12  -3.2117667332253704e-12  -3.2352702625701277e-12  -3.0156898757194835e-12  -3.0146726636042991e-12  -3.1362576447302739e-12  -3.2724381106769657e-12  -2.9660546076730462e-12  -3.6018334933962620e-12  -5.3318102966380495e-12  -4.0365026612048233e-12  -2.9996521198822258e-13  9.4878009707475369e-13  -1.4366399733463931e-11  -4.4017677722848799e-12  -6.7351386039870702e-12  -5.6552499638361428e-12  -5.5946774499481242e-12  -5.3156690587236414e-12  -5.1134223522470551e-12  -4.9249472126060350e-12  -4.7615067166595796e-12  -4.6425223459099239e-12  -4.4999730109895124e-12  -4.4435207453775496e-12  -4.3133038648997435e-12  -3.2589735921394414e-12  -3.3989888375408012e-12  -6.3938546350478297e-12  -6.2307399613507135e-12  -1.2401771738905822e-12  1.1100109615395233e-12  4.9376821874202394e-14  6.5278361995928544e-11  1.1716013837061871e-11  2.0729240382912313e-11  1.2845563220358386e-11  1.2564041871785008e-11  1.1409251344721507e-11  1.1290304553872714e-11  1.1328664935549618e-11  1.2086098694076823e-11  1.1951528035518453e-11  1.1056763936982817e-11  1.6790599087516414e-11  2.0240659914395985e-11  7.6630320029551785e-12  -3.1642703599952192e-12  5.5795721335114733e-14  -1.0603715397449833e-12  5.7609192555900547e-11  1.6882350013393592e-11  2.5835607448636329e-11  2.1714414647078950e-11  2.1316322266485359e-11  2.0275441611616032e-11  1.9463718123999486e-11  1.8718247218509660e-11  1.8065485802472737e-11  1.7514896619636905e-11  1.7118027897085833e-11  1.6548897457737705e-11  1.6535557641785035e-11  1.4834165987138294e-11  1.0609475197651413e-11  1.7325041554813993e-11  2.7502285759424355e-11  1.4615178796504550e-11  -2.9835368185623770e-12  -2.1748655375665641e-12  -2.9919503069344758e-10  -5.0767091484900290e-11  -8.8310570311213958e-11  -5.2874161246928559e-11  -4.9381483418645548e-11  -4.3810545381347458e-11  -4.2248348974348806e-11  -4.2201032089832197e-11  -4.2996430463079153e-11  -4.6391658917041257e-11  -4.2221879208777695e-11  -4.6292943435083375e-11  -7.6814431151357673e-11  -5.9714846467643741e-11  9.9673276869887062e-13  1.0737414042975532e-11  -2.3047459870283775e-10  -6.7289428462972757e-11  -9.8681304116224051e-11  -8.3792198859791657e-11  -8.1255830169978645e-11  -7.7382032273841210e-11  -7.4140311277666341e-11  -7.1206594885482749e-11  -6.8593722787192177e-11  -6.6345881936523798e-11  -6.4522982418284184e-11  -6.3106483684704524e-11  -6.0896992844288478e-11  -6.0942591840991273e-11  -4.7635159464271488e-11  -4.1522936833907379e-11  -9.0746229979462248e-11  -9.3583110331901245e-11  -1.1155794252783332e-11  1.6746868117570575e-11  1.3543698608247259e-09  2.3852807215492584e-10  3.7658570192615568e-10  2.2447371845291767e-10  1.9688849915536936e-10  1.7067550289264221e-10  1.5984430857193542e-10  1.5695780684674776e-10  1.5887419564025016e-10  1.6428231451547678e-10  1.7524832192903754e-10  1.4775926370325697e-10  2.2118734424297878e-10  3.0867577356614410e-10  9.7527311705032354e-11  -5.9029037535516724e-11  8.9400442092589124e-10  2.8290641783059816e-10  3.7549451319720376e-10  3.2495698136093655e-10  3.1018332398831312e-10  2.9549515125169200e-10  2.8260141996097709e-10  2.7108991512909728e-10  2.6070172290650557e-10  2.5162935761772736e-10  2.4398225678478784e-10  2.3797507882943205e-10  2.3241687318659391e-10  2.2392970430531700e-10  2.1888827542027589e-10  1.4394456885502483e-10  2.1563992483969459e-10  4.1911617488962336e-10  2.0216704677811019e-10  -7.0027681025167036e-11  -5.8868677806215795e-09  -1.2086062489715923e-09  -1.6035556245304958e-09  -9.7988271583817253e-10  -7.9924906440271591e-10  -6.7497550720963166e-10  -6.1261828907353304e-10  -5.8802197774177297e-10  -5.8799398648671800e-10  -6.0129384616436721e-10  -6.2913446911772020e-10  -6.4578350254946267e-10  -5.4869292319842833e-10  -1.1117588049424039e-09  -9.2248121478423142e-10  1.4638872222279458e-10  -3.2195089073279896e-09  -1.2399279275928589e-09  -1.4292454863464468e-09  -1.2656142594491135e-09  -1.1873319629258734e-09  -1.1291720845868471e-09  -1.0779457044287828e-09  -1.0327255381663536e-09  -9.9177018931157728e-10  -9.5535910320161292e-10  -9.2416141747215720e-10  -8.9846769532902481e-10  -8.7815244151589608e-10  -8.5425010420942303e-10  -8.1879368554367273e-10  -7.5383248883371432e-10  -4.5520502825839894e-10  -1.2694260977126535e-09  -1.4787485829321590e-09  2.1396712983714957e-11  2.3744986069739757e-08  6.3195316255554018e-09  6.8296313404431619e-09  4.3650775974683199e-09  3.3159639661123792e-09  2.7130264257410151e-09  2.3811299689476733e-09  2.2270574389846868e-09  2.1848845876074500e-09  2.2165631527323796e-09  2.2851718697024637e-09  2.3971816572733796e-09  2.3323391647071765e-09  2.3484140740289518e-09  5.2634497757983554e-09  8.3060451035489092e-10  1.0033422342946261e-08  5.4347412676406396e-09  5.4766698528365767e-09  4.9459443212590444e-09  4.5638671901482518e-09  4.3197706260945627e-09  4.1148610735410725e-09  3.9366142045720003e-09  3.7757635830760941e-09  3.6311505561245677e-09  3.5046045893466432e-09  3.3985790996198520e-09  3.3125835957280010e-09  3.2386569008873802e-09  3.1274432739363428e-09  2.9505834526435127e-09  2.4835773498854804e-09  1.9113269125151828e-09  7.0044271852218401e-09  2.4948104754309393e-09  9.9731763818351949e-05  6.6265486453443407e-05  5.3970344657277856e-05  4.7116194309064072e-05  4.2581080175202656e-05  3.9332417988495211e-05  3.6925881141390419e-05  3.5146364186027979e-05  3.3892502057964457e-05  3.3135863277080152e-05  3.2914411397117318e-05  3.3355354886052038e-05  3.4746990334049510e-05  3.7725842882144833e-05  4.3779145057813284e-05  5.6982563428326331e-05  8.9725413786338065e-05  6.0254609402980175e-05  5.0333921394016925e-05  4.5291208705720482e-05  4.2264344097588822e-05  4.0322486273064958e-05  3.9074239041446636e-05  3.8329858431833089e-05  3.7991582219582241e-05  3.8011424963497110e-05  3.8374150126494334e-05  3.9091959973172889e-05  4.0207080552332291e-05  4.1803374571519329e-05  4.4033506925179991e-05  4.7178670989316770e-05  5.1782736559005214e-05  5.8973726346353743e-05  7.1301459600735332e-05  9.5512145165108913e-05  1.6805197840914294e-04  1.3507356685763495e-04  1.1274307015263686e-04  9.8921059592084736e-05  8.9418945235370854e-05  8.2448089919855206e-05  7.7166467984275870e-05  7.3151012190004070e-05  7.0198085742129144e-05  6.8247889891830254e-05  6.7366056121972173e-05  6.7764945466109548e-05  6.9869077574279050e-05  7.4446386366823624e-05  8.2860820074489100e-05  9.7636917335207563e-05  1.4884332550300401e-04  1.2064219669652344e-04  1.0268492944924536e-04  9.2581146820721894e-05  8.6399050282547112e-05  8.2463328447477820e-05  7.9992568417350829e-05  7.8587445830343371e-05  7.8035637750020526e-05  7.8230166869162397e-05  7.9134359549051371e-05  8.0769753174406955e-05  8.3219171857411634e-05  8.6644804062994740e-05  9.1327092336507555e-05  9.7737720054156006e-05  1.0667210373779595e-04  1.1948994782864625e-04  1.3856247478894566e-04  1.6822576527719303e-04  2.2723116638643788e-04  1.9674318162342085e-04  1.7190250691731309e-04  1.5320255013052096e-04  1.3930381002706831e-04  1.2867031476483540e-04  1.2036125254521549e-04  1.1384966643278073e-04  1.0886411975415891e-04  1.0531239937183290e-04  1.0325393039529601e-04  1.0290351231458310e-04  1.0465614059089816e-04  1.0912034130153322e-04  1.1713350848128470e-04  1.2964370968450540e-04  1.9675466159944495e-04  1.7211422119418375e-04  1.5319688521804833e-04  1.4014077089461404e-04  1.3157827054372179e-04  1.2602107088069691e-04  1.2256158457595956e-04  1.2067817020005332e-04  1.2007462066755398e-04  1.2059469819767260e-04  1.2218020134702179e-04  1.2485424417965074e-04  1.2872158283771916e-04  1.3398370296093331e-04  1.4096994628287352e-04  1.5018798914160763e-04  1.6239702460431267e-04  1.7870096797407265e-04  2.0063302981260405e-04  2.3006495633603083e-04  2.8274906035442740e-04  2.5446041734037176e-04  2.2922835269162945e-04  2.0810243690798759e-04  1.9096792332780303e-04  1.7714674883926611e-04  1.6594051781972590e-04  1.5686603362549808e-04  1.4964283455496801e-04  1.4415699207450674e-04  1.4043745057610991e-04  1.3864458325356613e-04  1.3905846471246595e-04  1.4204222447221007e-04  1.4792940149639281e-04  1.5667326686265586e-04  2.3852959667296518e-04  2.1766904701783584e-04  2.0008527198015893e-04  1.8659190820865824e-04  1.7696330874000259e-04  1.7048841838939027e-04  1.6645924559317133e-04  1.6437473570161184e-04  1.6391753223063499e-04  1.6490812212524708e-04  1.6727292147237846e-04  1.7102836679096958e-04  1.7627782313036852e-04  1.8321877924412796e-04  1.9215820337031570e-04  2.0353246026696433e-04  2.1792281648863414e-04  2.3604179625082370e-04  2.5862172229836300e-04  2.8596834492542719e-04  3.3695948987457820e-04  3.1023923653187630e-04  2.8515190210103079e-04  2.6278043559373171e-04  2.4347347951928370e-04  2.2709222917229881e-04  2.1329031763213260e-04  2.0173324989450011e-04  1.9218814966298137e-04  1.8453888560288420e-04  1.7877783478318228e-04  1.7498906159639534e-04  1.7331605082374755e-04  1.7389154716273241e-04  1.7668473592101912e-04  1.8115768237904375e-04  2.7669453344213705e-04  2.5944092895257003e-04  2.4404700302528611e-04  2.3148675441868362e-04  2.2201227027396892e-04  2.1542629246172306e-04  2.1134302037851502e-04  2.0939321541114586e-04  2.0930265859735926e-04  2.1090019349342029e-04  2.1410753105360113e-04  2.1892989697628917e-04  2.2545144625092949e-04  2.3383475869714882e-04  2.4432131381476495e-04  2.5722662487750179e-04  2.7291716714453038e-04  2.9174117574776577e-04  3.1385091916413880e-04  3.3876127035765958e-04  3.9102247052681747e-04  3.6523301308189241e-04  3.4029199467005303e-04  3.1715696163836786e-04  2.9632354794003468e-04  2.7792451344909924e-04  2.6187064484138530e-04  2.4799289206431125e-04  2.3613552522477895e-04  2.2619834179617444e-04  2.1814395205415596e-04  2.1198331489038688e-04  2.0773780288512822e-04  2.0536291920509187e-04  2.0460618776031416e-04  2.0474970507714860e-04  3.1277829780476728e-04  2.9886406008298766e-04  2.8597232226194793e-04  2.7505147521042007e-04  2.6654581252239418e-04  2.6054207075360328e-04  2.5690784297253228e-04  2.5543571269352435e-04  2.5593301728778158e-04  2.5826226737428546e-04  2.6235185760302670e-04  2.6819578143510336e-04  2.7585001822490901e-04  2.8542706737836031e-04  2.9708621608496270e-04  3.1101340863240879e-04  3.2737899291089285e-04  3.4625127361387304e-04  3.6742620992174325e-04  3.9010439016222225e-04  4.4551964446819855e-04  4.2010616694146158e-04  3.9512450055495085e-04  3.7136651884492539e-04  3.4933781022520027e-04  3.2928719741936682e-04  3.1127576902687334e-04  2.9525962501068207e-04  2.8115813134940444e-04  2.6889581647729241e-04  2.5841663534391341e-04  2.4967425586873649e-04  2.4259768119798197e-04  2.3702444846027929e-04  2.3258983700774881e-04  2.2856045577786518e-04  3.4777450876036882e-04  3.3692174759817375e-04  3.2660027565361590e-04  3.1766467637200593e-04  3.1061855226175952e-04  3.0569328604158479e-04  3.0292167373714322e-04  3.0223135964082567e-04  3.0351718288622873e-04  3.0668723958992948e-04  3.1168481573973624e-04  3.1849547506502559e