<?xml version="1.0"?>
<VTKFile type="UnstructuredGrid"  version="0.1"  >
<UnstructuredGrid>
<Piece  NumberOfPoints="1067" NumberOfCells="1963">
<Points>
<DataArray  type="Float64"  NumberOfComponents="3"  format="ascii">1 0.3333333333333333 0  0.3333333333333333 0.3333333333333333 0  0.3333333333333333 1 0  0 1 0  0 0 0  1 0 0  0 0.5 0  0.5 0 0  0.3333333333333333 0.6666666666666666 0  0.6666666666666666 0.3333333333333333 0  0 0.75 0  0.25 0 0  0 0.25 0  0.75 0 0  0.1666666666666667 1 0  1 0.1666666666666667 0  0.3333333333333333 0.8333333333333333 0  0.375 0.1458333333333333 0  0.1888706140350877 0.2028508771929824 0  0.3333333333333333 0.5 0  0.8333333333333333 0.3333333333333333 0  0.1524989287154668 0.388331190764267 0  0.5 0.3333333333333333 0  0.5833333333333333 0.1666666666666667 0  0.1458333333333333 0.625 0  0.1583333333333333 0.825 0  0.825 0.1583333333333333 0  0.125 0 0  0 0.125 0  0 0.625 0  0 0.375 0  0.375 0 0  0.625 0 0  0 0.875 0  0.875 0 0  0.7057909604519773 0.2096045197740113 0  0.2033782928772914 0.5081924393159372 0  0.2229753521126761 0.720569248826291 0  0.2420454545454545 0.9087121212121212 0  0.9087121212121212 0.2420454545454545 0  0.4166666666666666 0.3333333333333333 0  0.4732142857142856 0.2157738095238095 0  0.6750921898496802 0.1010647141290868 0  0.3333333333333333 0.4166666666666666 0  0.4768915210573477 0.1066808275729647 0  0.1147181409008132 0.1147181409008132 0  0.219827215200512 0.1015435406570343 0  0.9154835390946502 0.0998456790123457 0  0.09984567901234567 0.9154835390946502 0  0.08229580025091013 0.3125 0  0.2490424622725705 0.6032672531067658 0  0.1006393784575282 0.5301568362439949 0  0.1169995413985014 0.727192736995927 0  0.2263966689731509 0.3065158354789739 0  0.2966728635224111 0.2224517248151044 0  0.09043699241737507 0.2104089341806989 0  0.3125 0.07291666666666667 0  0.07292806175162128 0.4396297689259239 0  0.6224176247481331 0.2512911876259334 0  0.239864329746879 0.4219752441630512 0  0.5625 0.06938154200389178 0  0.75 0.3333333333333333 0  0.7927489005587869 0.2475675126718038 0  0.3859676904520978 0.2461869149974528 0  0.2462310606060606 0.8208143939393939 0  0.7653408376112384 0.08966311200871162 0  0.06732456140350877 0.8125 0  0.3333333333333333 0.9166666666666666 0  0.9166666666666666 0.3333333333333333 0  0.08333333333333333 1 0  0.25 1 0  1 0.08333333333333333 0  1 0.25 0  0.3333333333333333 0.5833333333333333 0  0.3333333333333333 0.75 0  0.5833333333333333 0.3333333333333333 0  0.0625 0 0  0.07291666666666666 0.6595905945441375 0  0.5475816768684841 0.2345166678984481 0  0.1528924117958546 0.2744993329916797 0  0.8411372533802133 0.08406325820630503 0  0.2996637983602427 0.1471631728340777 0  0.4375 0 0  0.4054493459461466 0.07291666666666667 0  0.1440801191314338 0.4626342544081788 0  0.1716727459783015 0.9273685933408156 0  0.8968270669659558 0.1702183875794987 0  0 0.0625 0  0.1875 0 0  0 0.5625 0  0.1617554577346029 0.06411357198912754 0  0.7547177919703033 0.1591425659812248 0  0.2702765804490694 0.5345649711785327 0  0.08689030765479462 0.5948977651265637 0  0.7310390069598418 0.2703457257914622 0  0.9375 0 0  0 0.9375 0  0.4447477682500287 0.2744608764698752 0  0.1606803622837728 0.5597358803146593 0  0.6438968569972591 0.1900329824943801 0  0.2840816202988848 0.375 0  0.08880121935117018 0.3768893831475786 0  0.05501898908686768 0.09374999999999997 0  0.6875 0 0  0.8125 0 0  0 0.8125 0  0.5625 0 0  0 0.4375 0  0 0.1875 0  0 0.3125 0  0.3125 0 0  0 0.6875 0  0.2481953317884629 0.1828222069759379 0  0.237975717832275 0.2447888085739308 0  0.200176069352744 0.7786785170136837 0  0.2659174273276675 0.668564588774316 0  0.2014269398862459 0.6590442473968234 0  0.5361902489011917 0.1258889624633807 0  0.0675070920211801 0.1536645476496686 0  0.2888145418135863 0.4583333333333333 0  0.4389152459630969 0.1600092138755295 0  0.06106116270695027 0.7517361165768591 0  0.7150766468061498 0.05467962723819628 0  0.875 0.290973532000503 0  0.2909735320005029 0.875 0  0.8526144869835004 0.2144309675619541 0  0.9576401986671697 0.2083333333333333 0  0.2041847451790633 0.8628607093663911 0  0.9510163659495721 0.2843496992829054 0  0.2916666666666666 0.9583333333333333 0  0.09375 0.04966715310055026 0  0.6119161044147912 0.109672485429145 0  0.3311579498979588 0.2725512966323962 0  0.226425945410618 0.3650275865962277 0  0.1369397361142181 0.1712827978808029 0  0.2809701888780682 0.724725903187628 0  0.1379758826391655 0.3313643799237706 0  0.4586557180124523 0.05280132961106423 0  0.6887598321031895 0.1558102714243457 0  0.65625 0.04745742439875293 0  0.2861303319373879 0.7809153736790874 0  0.5038734826777268 0.2743345010629015 0  0.6773935352591479 0.2570263390181576 0  0.2798361614180057 0.3200395848847201 0  0.4949315857333921 0.1639857595809101 0  0.3380360928888468 0.186391247091096 0  0.1688076847263596 0.7050048004434435 0  0.1694932372870325 0.1258468186031997 0  0.1076591942820013 0.8563894303660385 0  0.05624279564308041 0.8796546858602379 0  0.125 1 0  0.8864787227825769 0.05347591410888117 0  0.9476420027807178 0.1460305506667086 0  0.2083333333333333 1 0  0.213464560872628 0.04765155683629457 0  0.1244815016517538 0.6741396688406132 0  0.1465842514222262 0.7723276599236152 0  0.04547383511106311 0.53125 0  0.2148758403578392 0.5611737930029497 0  0.3333333333333333 0.625 0  0.5120285103269483 0.05200579557286625 0  0.5557882597572179 0.2874233127303565 0  0.375 0.3333333333333333 0  0.05524798880942433 0.9506415704763231 0  0.9506415704763231 0.05524798880942434 0  0.1972666160395715 0.4547772398129902 0  0.04497829106973091 0.3487936014085283 0  0.05790539181627354 0.2591848609776979 0  0.8711365685983223 0.1257482348431603 0  0.2656491149947962 0.04983052048065093 0  0.8005870837483613 0.050967748851606 0  0.7230963420004116 0.1181590083901302 0  0.4218965800639618 0.2089072825214489 0  0.2811906938680201 0.2700269437372825 0  0.2495323619810901 0.4891505615133008 0  0.1991280016626992 0.6088690683261796 0  0.1409277024673874 0.2232207459103052 0  0.1468243620559488 0.512134886024921 0  0.03740774492937259 0.40625 0  0.2155422481162296 0.950793421692112 0  0.212106654032322 0.1498280878297097 0  0.2713550318729565 0.1040361211330102 0  0.1546665765869578 0.8783505049416189 0  0.6100874230054322 0.06146588433646355 0  0.7902906254281675 0.1962338398758094 0  0.1067887845369411 0.2582214394389009 0  0.3589746729730733 0.09632528030879431 0  0.3550972168408855 0.0461845191969495 0  0.7916666666666666 0.3333333333333333 0  0.04616482742057831 0.4815335788736005 0  0.7513486987797579 0.2238243946198433 0  0.8259111874430654 0.2843602986749449 0  0.1145135976767541 0.4167726763769093 0  0.09410347318951218 0.4826526468125477 0  0.1812616873741859 0.3506638009287041 0  0.04554546899361216 0.04637072539374764 0  0.197422420807303 0.4019311843643738 0  0.4299858672887971 0.1134643652332322 0  0.0461436106684496 0.1953024172515056 0  0.625 0.3333333333333333 0  0.6460078293604408 0.2915217509574419 0  0.6015642854289754 0.209584508987618 0  0.07463129964138498 0.7066466298758631 0  0.03783322102651011 0.59375 0  0.3958333333333333 0.2916919124978751 0  0.114022055899838 0.8100633326221395 0  0.7895154684417436 0.1289111178903929 0  0.600799783427331 0.2916355696893704 0  0.84375 0.03418030363172077 0  0.1917755503464407 0.2491670256216106 0  0.7083333333333333 0.3333333333333333 0  0.6478078564061464 0.1369553479973995 0  0.03144377545163998 0.71875 0  0.5384938547867213 0.1863839274804893 0  0.1306476667572267 0.952317581765362 0  0.2892367660002514 0.83086877593361 0  0.2481080288456043 0.865149100485581 0  0.03366228070175439 0.8414367919466372 0  0.7708333333333333 0.2927142374723782 0  0.2495866311601397 0.7559396780718943 0  0.2937576828079838 0.6041666666666666 0  0.3821593549415586 0.1894814149447491 0  0.3445642076128221 0.2302669507453929 0  0 0.78125 0  0.9599981637499104 0.1031385892720535 0  0.7574153542120744 0.04322853446886453 0  0.204050893649534 0.8206805424098645 0  0.2913165163454587 0.4163901636011871 0  0.2916638078313682 0.9166638078313682 0  0.3333333333333333 0.7083333333333333 0  0.3333333333333333 0.9583333333333333 0  0.3333333333333333 0.875 0  0.875 0.3333333333333333 0  0.4583333333333333 0.3333333333333333 0  0.3333333333333333 0.4583333333333333 0  0.9583333333333333 0.3333333333333333 0  1 0.2083333333333333 0  0.04166666666666666 1 0  1 0.04166666666666666 0  1 0.125 0  0.2916666666666666 1 0  0.3333333333333333 0.375 0  1 0.2916666666666666 0  0.5416666666666666 0.3333333333333333 0  0.3333333333333333 0.7916666666666666 0  0.3333333333333333 0.5416666666666666 0  0.1016069174729423 0.7681284775865405 0  0.6875 0.2973545198413665 0  0.04114790012545506 0.3075231959253509 0  0.2587887510102507 0.1431391960771147 0  0.1193245108135817 0.5679554230146414 0  0.1825380957195719 0.3068227309779981 0  0.1661760896432419 0.4282623189518068 0  0.1070276360235576 0.637347074818211 0  0 0.65625 0  0.03997879087021122 0.6348742039918381 0  0 0.90625 0  0.2979556257795157 0.6441983605310423 0  0.1769907023833003 0.7450354670868354 0  0.854811597523172 0.2553331016660396 0  0.2978902581390474 0.5640107983913386 0  0.422190360774741 0.03677291521413537 0  0.11934455203393 0.2960881760558284 0  0.288741907148047 0.4986855138502997 0  0.1618938936523733 0.6611871845610839 0  0.2987993331180339 0.6898492748391704 0  0.1759603428125616 0.1655905128188335 0  0.3370542346566173 0.1307683920597218 0  0.03886648645263804 0.6798368859108999 0  0.582137712504897 0.2556718560956591 0  0.5811816160381472 0.03469077100194589 0  0.5279722974875536 0.08768410328535482 0  0.5719976896208205 0.108182244938876 0  0.5126558232993131 0.216186636111048 0  0.2544607546659688 0.945918033212819 0  0.9136179827478804 0.2946597939900734 0  0.96132646065674 0.2469513160812137 0  0.6417305609928732 0.08267582195367543 0  0.8333983588276207 0.1212699393091796 0  0.8033911384781 0.08892182866041928 0  0.07360238009281882 0.5582453860506698 0  0 0.15625 0 
[...]
<PointData  Scalars="f_64"> 
<DataArray  type="Float64"  Name="f_64"  format="ascii">6.7842907560318166e-01  1.8798423943386025e-01  3.7942602216641717e-02  2.0490266788414559e-02  -1.0590338836362361e-04  -1.0018513255449911e-04  8.7556329061873814e-02  8.2660149834040811e-02  8.8643924029781579e-02  6.9140028882680740e-02  6.0470720276489018e-02  6.9116137046620840e-02  6.9973051786492213e-02  4.3084707020951782e-02  1.9035441247701960e-02  3.2890559275134436e-02  6.1101120419569943e-02  2.3027772546525094e-02  5.5531501933667744e-02  9.5562343460698571e-02  6.0182373113236459e-02  2.1881756983272289e-02  8.7535914280183438e-02  2.4348444213119998e-02  1.7235379512200676e-02  1.6739402730947501e-02  2.6246392429589444e-02  1.8813139782471049e-02  2.1639137247845601e-02  7.4736023464726908e-02  9.0210488347764947e-02  9.3168413160066368e-02  6.5185336858688533e-02  4.3215722073535016e-02  1.6040821639186967e-02  2.8672683836576493e-02  3.3260470930896541e-02  3.7054884897368461e-02  3.3329438338850631e-02  1.7776438518226363e-02  1.0501048928813410e-01  3.8837629467189466e-02  2.7762875630668055e-02  1.1041685578401700e-01  3.3386396690975345e-02  4.6161396933771366e-02  5.3103627027209555e-02  2.4970517137313946e-02  2.0581456949639490e-02  5.0551306856443899e-02  5.0718651892355547e-02  2.9095195642100367e-02  1.9830447655596755e-02  3.7357246061778482e-02  3.7698202386837097e-02  5.2530307085834657e-02  5.3218801411814572e-02  4.7953458737091025e-02  4.2781674843288285e-02  5.0599223733346292e-02  4.5049093905242914e-02  6.2395964146660605e-02  2.5135902350065509e-02  4.6134788990585561e-02  3.9074001608327760e-02  2.9242335817504666e-02  2.9649358131517835e-02  5.1565493290457703e-02  9.1517390963395756e-02  1.8577613991538535e-02  2.5252651183571295e-02  8.4850265176017736e-03  9.5073928209960218e-02  9.8054234746035862e-02  7.2974720478010360e-02  7.8758057829568739e-02  4.6789980425006447e-03  3.7651582019621141e-02  4.2690003215994678e-02  4.7960262388544235e-02  2.7386174462738472e-02  4.3712691932892386e-02  9.4597867923273696e-02  4.7809721850151331e-02  1.7990835188944069e-02  1.8660023171749841e-02  3.1988624438442095e-02  2.6332163145789188e-03  4.8138553170304813e-02  8.3985428791290367e-02  4.2566386066260349e-02  2.2978818270263077e-02  6.0925562219230942e-02  3.6018178864877105e-02  4.0474800421664563e-02  3.8676909500924652e-03  3.3468160544339515e-02  6.8120958323234060e-02  2.1060265901040248e-02  2.5093182662972321e-02  8.5292726018372261e-02  4.8146118075595351e-02  2.6539441441572525e-02  5.2846225257088625e-02  2.9531537153157483e-02  5.4408150905312896e-02  8.4877929832924442e-02  9.6558780181880036e-02  4.9919209743283594e-02  8.9797289310652631e-02  8.5468613289965370e-02  6.4597396306787541e-02  5.1965695688369368e-02  4.7734449449290436e-02  2.6104734453835918e-02  5.3184054767656176e-02  3.1271329882637797e-02  2.2806808040645662e-02  4.1613076987295446e-02  8.1203479267087111e-02  1.6907926584208616e-02  3.4128616276356487e-02  3.5550642111679534e-02  4.0469675288486141e-02  4.7639878868624114e-02  1.8747987545135167e-02  4.3357601138908762e-02  2.5953845882482205e-02  1.0898129775771122e-02  3.9802033448201261e-02  2.1959461768484165e-02  2.7787170105749544e-02  4.5805357543163942e-02  2.5492524062641821e-02  5.5291283563547539e-02  5.5180734871510234e-02  3.5710121594915621e-02  5.7937527789454969e-02  2.1551214159359067e-02  4.0931389941000054e-02  5.3367696775104737e-02  6.3826255449111732e-02  4.1131890295046790e-02  4.7715296868179484e-02  2.0121446970266316e-02  2.4554343949772947e-02  1.9138397527192198e-02  5.3616659648428704e-02  2.0215137674690607e-02  2.9167465032023547e-02  1.8303934943005331e-02  2.0109807389038038e-02  2.9063344173901121e-02  2.2229226195271373e-02  4.7315348422177314e-02  1.9837646033481690e-02  1.6922765134131559e-02  6.4667794548730506e-02  3.5954895518516015e-02  9.4459324645582557e-02  5.9430384118207585e-02  6.2253745782064468e-02  1.3547878428448826e-01  2.5307517641715335e-02  1.2633389505304727e-02  2.9458694244323798e-02  6.7100302734671810e-02  5.3859842288154491e-02  3.1461376770529972e-02  5.6664719877505758e-02  2.8235211732634383e-02  2.5115563526257361e-02  3.0418579463211262e-02  4.3273196714840388e-02  5.4853123372115564e-02  2.8190620990145070e-02  5.6106002492680732e-02  1.8847012161685297e-02  7.1666927788157864e-02  2.3702746169621456e-02  5.6310092405584676e-02  4.7787333326877388e-02  1.7230662420363248e-02  4.1749409047602014e-02  2.0562278863256178e-02  5.2065861512755857e-02  4.5362745605474417e-02  6.3362397688439973e-02  6.1048276474248389e-02  6.2202672559605682e-02  2.7413800169232477e-02  3.8200034576900833e-02  3.1707728932456040e-02  3.4959937929607644e-02  2.2837797214474143e-02  1.0305656582945645e-02  1.8803826061648904e-02  3.1947501872782967e-02  4.3784358843006597e-02  7.2896290320839954e-02  5.5771935404678639e-02  3.2682104510554387e-02  3.4446216003237003e-02  5.9181347306121353e-02  8.7321999194473310e-02  1.9526605358352447e-02  2.6532858551400123e-02  6.0267333110422129e-02  2.2675543542200537e-02  5.0477172236243512e-02  6.6333716979885729e-02  2.1717547091103760e-02  5.0058229479215795e-02  2.5457842598803560e-02  1.5884498367646549e-02  5.0857736551163268e-02  3.6389858517263798e-02  3.8715143206986484e-02  4.6224676800169728e-02  4.3058428502723220e-02  6.9319031374293280e-02  2.0520273484077926e-02  2.9156968469011196e-02  5.6526492951105976e-02  1.8304082502425229e-02  3.3448474648306394e-02  2.6874509220360148e-02  9.0654247899004461e-02  4.4117147949047919e-02  7.7713731127479799e-02  4.5825777173051183e-02  5.6987723247757520e-02  6.5112182316091435e-02  9.0407585601291779e-02  9.9450518119217152e-02  1.4305440661287888e-01  5.4434013982033611e-02  1.9046398383092054e-02  1.8637671192231564e-03  1.9045632870437267e-02  2.7166335687746835e-02  1.4023942298469727e-01  1.4860723598671141e-01  8.0179190966421357e-02  6.8106166897393627e-02  9.4944554130847791e-02  2.2554098118594084e-02  5.4930785961853877e-02  6.5267451686594549e-02  4.9111340178942427e-02  2.0545453421804419e-02  3.7451754107833524e-02  1.3672105825011464e-02  2.4420823720160991e-02  6.8645894220580123e-02  5.5221077408908970e-02  4.0079196717799588e-02  6.8682682731409817e-02  2.3050132841033081e-02  1.7445915261028563e-02  7.4515085033249884e-02  6.8175216950664613e-02  4.6124928403357190e-02  7.6278748462932061e-02  1.9078561329129273e-02  6.5399446528764768e-02  5.6834846047562643e-02  3.7608842610694776e-02  5.2110920591876123e-02  4.9397535263487259e-02  5.5572804251640795e-02  3.6544426229240541e-02  2.7272011893032293e-02  3.7800361227278853e-02  3.3771692593554184e-02  3.5750993329246958e-02  5.2462544843529545e-02  3.4058553677254820e-02  2.9011348167713006e-02  2.8607112002682261e-02  4.2890910471335517e-02  3.1136462668886155e-02  1.9816936415155768e-02  3.9217906315879007e-02  2.9107869502358288e-02  9.4230371004975296e-04  1.0275004361331719e-01  3.0880994521599120e-02  1.8791494609478758e-02  7.8416473092242825e-02  4.2303561267814385e-02  8.7053767826378581e-03  3.0017318078191066e-02  3.9281274422557924e-02  2.7458403118895289e-02  2.9512011573237202e-02  4.0721444080582009e-02  3.4590109830805876e-02  7.0838344854037463e-02  6.6304781472027036e-02  2.4042800126662097e-02  2.8184989526384249e-02  1.8014266795377820e-02  2.9915698314584085e-02  1.5774819008138308e-02  3.0854328764086277e-02  6.0342738227301719e-02  3.2569161710309227e-02  5.5473459798169603e-02  4.9752276358096995e-02  4.9875608873057073e-02  5.5803235339871471e-02  3.0219548838094020e-02  2.4273478667711047e-02  4.8089073695548781e-02  1.0986195951088103e-02  7.7298847245693747e-02  5.2717914724940196e-02  2.1688238146211385e-02  7.2768150401811449e-02  3.7625577017616381e-02  4.6235556888503934e-02  3.1502024054005755e-02  3.7557761253295352e-02  4.7466479870265130e-02  5.2463426604863111e-02  5.0394028748256929e-02  4.9248544013526081e-02  3.9356648500555376e-02  3.3997238419985261e-02  5.1968746143633456e-02  1.8309892543315005e-02  2.8839867970109772e-02  6.0055141243268058e-02  6.7794718735640899e-02  9.2427799002515978e-02  5.1981627905761739e-02  4.7256460862927827e-02  3.5610022114959353e-02  2.3178658909948763e-02  2.4260516569953615e-02  3.5565484921222940e-02  1.7750225082730817e-02  2.8164748542848995e-02  4.6427493511169482e-02  6.7417641344980905e-02  4.3205827418228586e-02  3.1571658994718289e-02  4.6461853774527523e-02  5.3119634314714378e-02  2.6600118272652590e-02  1.8682813427637012e-02  2.4203865643436816e-02  2.2442958519975680e-02  4.0117664698578359e-02  4.6743289612474793e-02  4.1498212434084150e-02  2.9962147838445027e-02  3.5761383321805583e-02  3.0883889000441114e-02  2.0970019109053231e-02  2.1805696861149998e-02  2.6502972605849922e-02  5.8337651500000594e-02  8.5658279549617078e-02  6.3475864310698707e-04  1.0978167852444720e-03  4.9442860755395612e-02  4.1746117308759365e-02  3.3175053552537463e-02  4.9630499778876298e-02  2.0677459181680374e-02  4.7570908689287685e-02  3.2321667371918106e-02  5.7917030898133895e-02  1.3629254863890283e-01  6.0954432355563519e-02  2.2344022444109563e-02  2.9509712473835839e-02  2.2815196319687963e-02  8.2206172897024574e-02  1.2037929249823958e-02  1.1384148128604549e-02  5.4796356274781154e-02  2.8096511180344962e-02  3.3811621783730185e-02  7.7729062619965594e-02  6.4779296075151288e-02  1.7765752155405903e-02  1.9729527149752523e-02  9.1784347537612776e-02  4.8730042502896587e-02  5.0211996008889960e-02  4.6929004798467108e-02  5.5750197811302991e-02  1.9163967597386356e-02  3.8589973756098017e-02  2.5587281213337219e-02  8.5618782678428124e-02  9.0786511683827023e-02  5.2024997471987994e-02  6.4134526254278096e-02  2.4591022556531852e-02  8.0064816390761309e-02  9.4951451383197175e-02  9.4767120913416561e-02  9.3482142639613686e-02  5.6501539667646719e-02  6.0608367221556464e-02  8.9191412641394206e-03  7.8028589541198276e-02  6.5126369683706484e-02  2.0592705565456521e-02  2.9093210344924895e-02  2.1430540106723225e-02  2.3049436114691180e-02  2.8780612662772407e-02  1.7179119660338867e-02  6.4419317746199203e-02  2.5741982512196754e-02  3.4876241703596066e-02  4.1347389230934409e-02  4.8072665992373038e-02  3.2096470508426823e-02  4.6160295778432142e-02  3.0541329392896329e-02  5.2259654811560738e-02  5.2537425997934005e-02  4.9688709852799301e-02  3.4352414561602158e-02  5.1039087647279567e-02  5.8338225318393201e-02  2.2178389961567496e-02  2.6149795688570485e-02  2.3620843192796354e-02  3.3084122956107236e-02  9.0495645236508201e-02  2.5585022661810800e-02  5.4751506177970234e-02  1.0028871805919751e-02  4.8456989770895929e-02  1.6625099504026689e-02  5.0552155184101819e-02  2.3979402196922284e-02  2.0966818279596747e-02  3.3153234016370131e-02  5.4165960346749115e-02  3.2897251069435633e-02  5.2687001531770965e-02  1.2919883024924800e-02  4.1848333752777897e-02  9.3600890515412080e-02  3.3079535336987556e-02  3.8152910859704806e-02  2.4027135963436360e-02  5.7994944849973404e-02  5.0081033866156130e-02  6.4675965319100748e-02  6.4108188502449939e-02  5.9835371711847454e-02  5.0683659674677167e-02  1.0289670780823834e-01  5.0877326374046329e-02  4.0274759948558586e-02  1.6106057354728079e-01  3.0638923797050223e-02  4.6215745822091037e-02  4.6600313573413217e-02  3.2051249679168767e-02  4.3576320653008635e-02  1.3920778509740769e-02  2.1757543464728038e-02  2.8782623985621297e-02  4.5241057113098206e-02  3.0545706715301928e-02  5.3203134141696688e-02  2.1892547886152872e-02  6.8994029858652106e-02  2.9080851048746297e-03  2.9754388955115323e-02  3.9380953731160954e-02  7.3082654467797770e-02  6.2351423303145331e-02  2.3545048438400686e-02  2.8515586080369432e-02  2.4225151717471159e-02  5.6187217004854843e-02  4.2296874605026624e-02  1.4500647672629046e-02  5.2379319333546295e-02  7.1796423726651334e-02  2.2655456850729869e-02  5.1396913027656387e-02  1.8959452339153839e-02  3.2640520484497962e-03  1.0650347868031224e-02  2.9488605064510873e-02  6.3305506636166617e-02  3.9396025516060043e-02  5.1503868082790151e-02  2.9401403174841974e-02  3.5324633004699062e-02  2.2769901444658455e-02  2.2082247496454061e-02  1.7315875402258329e-02  2.0572327092405564e-02  2.2076905232161895e-02  2.8108027451610222e-02  2.4693689339506095e-02  3.5251434942403834e-02  3.9926966236644830e-02  2.3914202827487761e-02  7.2283725579046373e-02  5.1878056036206655e-02  5.5219290828410303e-02  2.8047835129657799e-02  6.6897613196039790e-02  1.9449161575541059e-02  5.2829934161962397e-02  3.3686708246898095e-02  4.5573323368980651e-02  6.6680675217855062e-02  2.5827164844813490e-02  6.7575514965938180e-02  3.5226428637106254e-02  4.7552163634858209e-02  1.7594304980041893e-02  2.0268615764556790e-02  4.7668659891917202e-02  2.9076080583396981e-02  5.3851460492800700e-02  3.4839711243047848e-02  2.9294113696192253e-02  7.4500417991600495e-02  4.6676141514528528e-02  5.3287352773940387e-02  2.5347180946516164e-02  7.8001123324066196e-02  5.2793806259155612e-02  2.7625362448853989e-02  1.9432015453888767e-02  2.3092951286240136e-02  3.1446708027417232e-02  5.1653799934477558e-02  3.5063083821136910e-02  3.2655092079930531e-02  4.3799407427561124e-02  2.0769138657651041e-02  4.3663371403473018e-02  1.7021522418199451e-02  2.0182992947682183e-02  2.8057856425042889e-02  1.6876966870220275e-02  1.9960229751762683e-02  5.8963643029155917e-02  2.3590287735941379e-02  1.7051279007368778e-02  2.7583254106056630e-02  2.4227055472951876e-02  4.4978458879238778e-02  8.1424016851132000e-02  6.8556035287112210e-02  4.3441046362788539e-02  1.7712058953488697e-02  2.6738191119128511e-02  4.5776159929336695e-02  7.2714244213035711e-02  1.8924336688344204e-02  5.2135587439878291e-02  2.2303163751712020e-02  5.4351828622328929e-02  4.0170973699159750e-02  5.1485050809075249e-02  2.8414910891487604e-02  3.0018927328160111e-02  5.0400656613303965e-02  6.4473299805556716e-02  1.6845261380187205e-02  3.3247345969736920e-02  3.7748946981119365e-02  1.7388264754527375e-02  1.8519442894186819e-02  4.1697165785609835e-02  2.2374971816170468e-02  4.6753060996482465e-02  4.7149697579955289e-02  4.4082990319052412e-02  4.6323610100491242e-02  2.3320631493470686e-02  2.5327656151877098e-02  2.1920601353013963e-02  2.8665415827828649e-02  2.9213335714427323e-02  3.0648832023536521e-02  4.6653781770187593e-02  2.3706144572693714e-02  2.2150992216395868e-02  2.1855541034155379e-02  1.5285485727171125e-02  4.7378762556379135e-02  5.2933032617267804e-02  2.3550599390222304e-02  3.9296045135138208e-02  5.1995639789456330e-02  1.3035769197817597e-02  5.2566280273150155e-02  5.1509366034076111e-02  2.4302589913010576e-02  7.6130364319751148e-02  3.2142434800944288e-02  7.4204121846412729e-02  1.9959280043402805e-02  3.7664460080149439e-02  3.5009772897919067e-02  3.1403153167493883e-02  6.4046735689352499e-02  6.9143364885320691e-02  1.7134265685513586e-02  2.7952645718930934e-02  3.1019109719885841e-02  1.9370548572778128e-02  4.4876463571366293e-02  1.8729592656685612e-02  5.8329710447561557e-02  4.4781541349648624e-02  1.5861772318735718e-02  2.7917093878211074e-02  3.3320951029176961e-02  5.2305442474030989e-02  3.2048957529485764e-02  3.5787511806258165e-02  4.8156248374559216e-03  3.6037604742739558e-02  5.0513674070337425e-02  2.9644067561171723e-02  5.7012216745512469e-02  2.5256385589901908e-02  4.5872459220937724e-02  6.3965851585009129e-02  3.1080718462778715e-02  3.5654705238182524e-02  2.0460171340784376e-02  5.4421756040950314e-02  5.3417914421980336e-02  5.4789147576298616e-02  5.4663631385661438e-02  6.6859543216635356e-02  1.5078014735423383e-02  5.5857278487069437e-02  5.9326532315388855e-02  8.1675255228910573e-02  6.0326033239907338e-02  4.6822312778774265e-02  6.6160303415277802e-03  3.4334658072527016e-02  1.8497201996349220e-02  2.1957895517145880e-02  6.1239564959353655e-02  1.6365512541514995e-02  2.5446836285147816e-02  4.7629018348551239e-02  4.9609233740451663e-03  2.0718985540145913e-02  4.4770370127673653e-02  4.6049270117612014e-02  7.5291290969376201e-02  6.4512017016217393e-02  7.6854906633622738e-02  4.9950395175671181e-02  2.5848814725568398e-02  3.9171362988154781e-02  5.6509311958337589e-02  7.2643718437755952e-02  1.6617583968430921e-02  1.7593087789124988e-02  1.6849813487110225e-02  4.2671191998930415e-02  4.7639217918334760e-02  7.5271572248094540e-02  1.4953177249974760e-03  2.1520223213899573e-02  4.6500005727284188e-02  6.6005812095358316e-02  2.6000037091059833e-02  2.1100655185079083e-02  2.4527398812163453e-02  6.4307356689204828e-02  4.3213109348891394e-02  8.5467851169218331e-02  4.1953032464202615e-02  4.7598353043317894e-02  2.5058528848112799e-02  2.9029648473525665e-02  3.9377643017090590e-02  2.1792186570666155e-02  2.6937149141163175e-02  4.1652710042738739e-02  4.9172368182174651e-02  4.1856272946623634e-02  5.0258796959154084e-02  4.0109204160652785e-02  4.4292749173607190e-02  2.1728543516058088e-02  2.9670764542585500e-02  5.7979303663360265e-02  3.1788611631765148e-02  2.3162770614661606e-02  4.2732812635540962e-02  3.4303726150341211e-02  5.5734416510403596e-02  2.7934903819791669e-02  8.2089961411236548e-02  5.1397681484466086e-02  6.1201955756009063e-02  2.4653367511598828e-02  4.1399418863484160e-02  6.9826419105270196e-02  1.0005199025429970e-01  1.1390553055102701e-01  7.2899895871787773e-02  3.1567869546177352e-02  5.1165573441064247e-02  5.0464195845910741e-02  5.9285474948246271e-02  2.4132894300143492e-02  3.6416849325478437e-02  2.8758756928656759e-02  2.6062138666054075e-02  2.5615112888652751e-02  6.9617368680069389e-02  4.8660009209472325e-02  2.1277412434541031e-02  2.3541638155041157e-02  4.0101653829781585e-02  5.2434668936198747e-02  4.1349285011358865e-02  7.3865138360799901e-02  5.2819080644530218e-02  2.4780283838197827e-02  1.2799425413730914e-02  2.6363060373553491e-02  2.2655459634998851e-02  3.8758858638399028e-02  7.4883461208498717e-02  5.7407450374147892e-02  4.7581703219676190e-02  4.0374760696770991e-02  3.3875454579374173e-02  6.8714573370428828e-02  1.9275652781598030e-02  8.1944390385891228e-02  2.4007577242679597e-02  5.6646229540090014e-02  2.5999526117662885e-02  5.4596025845921700e-02  3.6679411402276978e-02  6.1685887282017925e-02  2.3611270221261374e-02  2.7264128540672842e-02  5.9231229483962932e-03  2.3967131974023514e-02  4.5387366783921156e-02  2.2108838823785983e-02  7.8182125004748845e-02  8.3869387754628447e-02  8.0178531826364627e-02  3.5594747111752631e-02  8.7333390566962807e-02  2.5955667983793024e-02  3.4527726628090963e-02  4.1774602044741344e-02  4.7143124190988039e-02  2.8597615535400751e-02  6.0118178530795839e-02  4.8148107846357036e-02  3.2696005615709171e-02  3.4536881618114898e-02  6.4745205273043810e-02  3.9868369147300221e-02  3.4702544168093694e-02  3.3122840040233907e-02  3.6194796794770459e-02  5.7397371164895794e-02  3.1421038682168848e-02  3.1245107337334523e-02  1.7710091686503976e-02  2.1985922826671094e-02  5.0072291050064811e-02  2.6569675470708810e-02  3.7268962656104465e-02  1.7457251170913679e-02  3.5491520066884268e-02  3.5131060475580997e-02  2.8892484663923666e-02  5.0085757645623417e-02  3.4524568253998911e-02  4.8195931725099561e-02  2.6318294204986322e-02  5.3399965373090316e-02  1.8829025667773482e-02  4.9150302670262193e-02  1.6388004713304725e-02  2.5496123364680441e-02  5.4699204626226683e-02  2.8921453140451119e-02  9.5601740021290446e-02  1.0514397957530755e-01  1.8990762676601464e-02  4.5515507448730896e-02  -5.7065355005057839e-04  5.1059394890790324e-02  5.6378035141356586e-02  4.8215119322573462e-02  4.1323482722831997e-02  5.8079152406520333e-02  4.3180192860058045e-02  3.0715686223850971e-02  3.8968068425748660e-02  3.1936748533211913e-02  1.8644431436475564e-01  3.2007058030644471e-02  6.1785105609526221e-02  2.5244170790581940e-02  2.3470674209159707e-02  2.2344227225281954e-02  5.5338528207364387e-02  4.0326138691718014e-02  1.8688125962014867e-02  9.3988122999248247e-02  8.19506657155468